<?xml version="1.0" encoding="UTF-8"?>

<!-- generated on 03/22/19 15:54:22 by Eclipse SUMO GUI Version 1.1.0
<configuration xmlns:xsi="http://www.w3.org/2001/XMLSchema-instance" xsi:noNamespaceSchemaLocation="http://sumo.dlr.de/xsd/sumoConfiguration.xsd">

    <input>
        <net-file value="data/net.net.xml"/>
        <route-files value="data/net.rou.xml"/>
    </input>

    <output>
        <tripinfo-output value="tripinfo.xml"/>
    </output>

    <time>
        <begin value="0"/>
    </time>

    <report>
        <verbose value="true"/>
        <no-step-log value="true"/>
    </report>

    <traci_server>
        <remote-port value="62102"/>
    </traci_server>

</configuration>
-->

<tripinfos xmlns:xsi="http://www.w3.org/2001/XMLSchema-instance" xsi:noNamespaceSchemaLocation="http://sumo.dlr.de/xsd/tripinfo_file.xsd">
    <tripinfo id="w2n_0" depart="0.00" departLane="1fi_0" departPos="5.10" departSpeed="8.39" departDelay="0.00" arrival="86.00" arrivalLane="4o_0" arrivalPos="488.65" arrivalSpeed="11.37" duration="86.00" routeLength="993.65" waitingTime="0.00" waitingCount="0" stopTime="0.00" timeLoss="5.07" rerouteNo="0" devices="tripinfo_w2n_0" vType="stdSKVehicle" speedFactor="1.06" vaporized=""/>
    <tripinfo id="s2n_19" depart="15.00" departLane="3fi_1" departPos="5.10" departSpeed="6.26" departDelay="0.00" arrival="97.00" arrivalLane="4o_0" arrivalPos="488.65" arrivalSpeed="12.47" duration="82.00" routeLength="995.39" waitingTime="0.00" waitingCount="0" stopTime="0.00" timeLoss="8.58" rerouteNo="0" devices="tripinfo_s2n_19" vType="stdSKVehicle" speedFactor="1.16" vaporized=""/>
    <tripinfo id="n2s_10" depart="10.00" departLane="4fi_1" departPos="5.10" departSpeed="0.34" departDelay="0.00" arrival="101.00" arrivalLane="3o_0" arrivalPos="488.65" arrivalSpeed="11.24" duration="91.00" routeLength="995.39" waitingTime="0.00" waitingCount="0" stopTime="0.00" timeLoss="12.29" rerouteNo="0" devices="tripinfo_n2s_10" vType="stdSKVehicle" speedFactor="1.09" vaporized=""/>
    <tripinfo id="s2n_30" depart="23.00" departLane="3fi_0" departPos="5.10" departSpeed="0.69" departDelay="0.00" arrival="102.00" arrivalLane="4o_1" arrivalPos="488.65" arrivalSpeed="13.05" duration="79.00" routeLength="995.39" waitingTime="0.00" waitingCount="0" stopTime="0.00" timeLoss="6.37" rerouteNo="0" devices="tripinfo_s2n_30" vType="stdSKVehicle" speedFactor="1.18" vaporized=""/>
    <tripinfo id="s2n_6" depart="8.00" departLane="3fi_0" departPos="5.10" departSpeed="1.50" departDelay="0.00" arrival="103.00" arrivalLane="4o_0" arrivalPos="488.65" arrivalSpeed="10.97" duration="95.00" routeLength="995.39" waitingTime="1.00" waitingCount="1" stopTime="0.00" timeLoss="13.16" rerouteNo="0" devices="tripinfo_s2n_6" vType="stdSKVehicle" speedFactor="1.05" vaporized=""/>
    <tripinfo id="n2s_15" depart="13.00" departLane="4fi_0" departPos="5.10" departSpeed="1.28" departDelay="0.00" arrival="112.00" arrivalLane="3o_0" arrivalPos="488.65" arrivalSpeed="9.03" duration="99.00" routeLength="995.39" waitingTime="0.00" waitingCount="0" stopTime="0.00" timeLoss="7.16" rerouteNo="0" devices="tripinfo_n2s_15" vType="stdSKVehicle" speedFactor="0.93" vaporized=""/>
    <tripinfo id="n2s_22" depart="17.00" departLane="4fi_1" departPos="5.10" departSpeed="8.03" departDelay="0.00" arrival="113.00" arrivalLane="3o_1" arrivalPos="488.65" arrivalSpeed="10.40" duration="96.00" routeLength="995.39" waitingTime="0.00" waitingCount="0" stopTime="0.00" timeLoss="8.55" rerouteNo="0" devices="tripinfo_n2s_22" vType="stdSKVehicle" speedFactor="0.98" vaporized=""/>
    <tripinfo id="n2e_13" depart="11.00" departLane="4fi_0" departPos="5.10" departSpeed="8.47" departDelay="0.00" arrival="115.00" arrivalLane="2o_0" arrivalPos="488.65" arrivalSpeed="11.73" duration="104.00" routeLength="993.65" waitingTime="16.00" waitingCount="1" stopTime="0.00" timeLoss="28.30" rerouteNo="0" devices="tripinfo_n2e_13" vType="stdSKVehicle" speedFactor="1.12" vaporized=""/>
    <tripinfo id="s2w_3" depart="5.00" departLane="3fi_1" departPos="5.10" departSpeed="10.53" departDelay="0.00" arrival="117.00" arrivalLane="1o_0" arrivalPos="488.65" arrivalSpeed="11.95" duration="112.00" routeLength="993.65" waitingTime="23.00" waitingCount="1" stopTime="0.00" timeLoss="32.91" rerouteNo="0" devices="tripinfo_s2w_3" vType="stdSKVehicle" speedFactor="1.08" vaporized=""/>
    <tripinfo id="n2s_16" depart="14.00" departLane="4fi_1" departPos="5.10" departSpeed="3.70" departDelay="0.00" arrival="118.00" arrivalLane="3o_0" arrivalPos="488.65" arrivalSpeed="9.01" duration="104.00" routeLength="995.39" waitingTime="0.00" waitingCount="0" stopTime="0.00" timeLoss="6.59" rerouteNo="0" devices="tripinfo_n2s_16" vType="stdSKVehicle" speedFactor="0.88" vaporized=""/>
    <tripinfo id="n2s_23" depart="19.00" departLane="4fi_0" departPos="5.10" departSpeed="5.77" departDelay="0.00" arrival="122.00" arrivalLane="3o_0" arrivalPos="488.65" arrivalSpeed="9.66" duration="103.00" routeLength="995.39" waitingTime="0.00" waitingCount="0" stopTime="0.00" timeLoss="6.89" rerouteNo="0" devices="tripinfo_n2s_23" vType="stdSKVehicle" speedFactor="0.89" vaporized=""/>
    <tripinfo id="e2w_37" depart="33.00" departLane="2fi_0" departPos="5.10" departSpeed="0.12" departDelay="0.00" arrival="128.00" arrivalLane="1o_1" arrivalPos="488.65" arrivalSpeed="12.41" duration="95.00" routeLength="995.39" waitingTime="6.00" waitingCount="1" stopTime="0.00" timeLoss="22.64" rerouteNo="0" devices="tripinfo_e2w_37" vType="stdSKVehicle" speedFactor="1.18" vaporized=""/>
    <tripinfo id="w2e_4" depart="6.00" departLane="1fi_0" departPos="5.10" departSpeed="7.25" departDelay="0.00" arrival="128.00" arrivalLane="2o_1" arrivalPos="488.65" arrivalSpeed="10.60" duration="122.00" routeLength="995.39" waitingTime="28.00" waitingCount="1" stopTime="0.00" timeLoss="39.15" rerouteNo="0" devices="tripinfo_w2e_4" vType="stdSKVehicle" speedFactor="1.03" vaporized=""/>
    <tripinfo id="e2n_12" depart="10.00" departLane="2fi_0" departPos="5.10" departSpeed="0.78" departDelay="0.00" arrival="128.00" arrivalLane="4o_0" arrivalPos="488.65" arrivalSpeed="10.43" duration="118.00" routeLength="977.69" waitingTime="23.00" waitingCount="1" stopTime="0.00" timeLoss="37.74" rerouteNo="0" devices="tripinfo_e2n_12" vType="stdSKVehicle" speedFactor="1.05" vaporized=""/>
    <tripinfo id="e2w_11" depart="10.00" departLane="2fi_1" departPos="5.10" departSpeed="6.23" departDelay="0.00" arrival="129.00" arrivalLane="1o_0" arrivalPos="488.65" arrivalSpeed="11.30" duration="119.00" routeLength="995.39" waitingTime="24.00" waitingCount="1" stopTime="0.00" timeLoss="35.17" rerouteNo="0" devices="tripinfo_e2w_11" vType="stdSKVehicle" speedFactor="1.03" vaporized=""/>
    <tripinfo id="n2e_7" depart="9.00" departLane="4fi_0" departPos="5.10" departSpeed="7.99" departDelay="0.00" arrival="129.00" arrivalLane="2o_0" arrivalPos="488.65" arrivalSpeed="8.85" duration="120.00" routeLength="993.65" waitingTime="12.00" waitingCount="1" stopTime="0.00" timeLoss="23.48" rerouteNo="0" devices="tripinfo_n2e_7" vType="stdSKVehicle" speedFactor="0.89" vaporized=""/>
    <tripinfo id="w2e_31" depart="23.00" departLane="1fi_0" departPos="5.10" departSpeed="12.19" departDelay="0.00" arrival="130.00" arrivalLane="2o_2" arrivalPos="488.65" arrivalSpeed="12.64" duration="107.00" routeLength="995.39" waitingTime="16.00" waitingCount="1" stopTime="0.00" timeLoss="33.33" rerouteNo="0" devices="tripinfo_w2e_31" vType="stdSKVehicle" speedFactor="1.15" vaporized=""/>
    <tripinfo id="w2s_2" depart="4.00" departLane="1fi_1" departPos="5.10" departSpeed="5.23" departDelay="0.00" arrival="130.00" arrivalLane="3o_0" arrivalPos="488.65" arrivalSpeed="10.71" duration="126.00" routeLength="977.69" waitingTime="29.00" waitingCount="1" stopTime="0.00" timeLoss="42.38" rerouteNo="0" devices="tripinfo_w2s_2" vType="stdSKVehicle" speedFactor="1.01" vaporized=""/>
    <tripinfo id="e2w_33" depart="26.00" departLane="2fi_0" departPos="5.10" departSpeed="0.40" departDelay="1.00" arrival="131.00" arrivalLane="1o_1" arrivalPos="488.65" arrivalSpeed="12.25" duration="105.00" routeLength="995.39" waitingTime="8.00" waitingCount="1" stopTime="0.00" timeLoss="31.88" rerouteNo="0" devices="tripinfo_e2w_33" vType="stdSKVehicle" speedFactor="1.17" vaporized=""/>
    <tripinfo id="w2e_1" depart="1.00" departLane="1fi_1" departPos="5.10" departSpeed="6.15" departDelay="0.00" arrival="132.00" arrivalLane="2o_0" arrivalPos="488.65" arrivalSpeed="10.42" duration="131.00" routeLength="995.39" waitingTime="29.00" waitingCount="1" stopTime="0.00" timeLoss="40.35" rerouteNo="0" devices="tripinfo_w2e_1" vType="stdSKVehicle" speedFactor="0.94" vaporized=""/>
    <tripinfo id="w2s_28" depart="22.00" departLane="1fi_1" departPos="5.10" departSpeed="0.76" departDelay="0.00" arrival="132.00" arrivalLane="3o_1" arrivalPos="488.65" arrivalSpeed="11.76" duration="110.00" routeLength="977.69" waitingTime="18.00" waitingCount="1" stopTime="0.00" timeLoss="35.72" rerouteNo="0" devices="tripinfo_w2s_28" vType="stdSKVehicle" speedFactor="1.13" vaporized=""/>
    <tripinfo id="e2w_18" depart="15.00" departLane="2fi_0" departPos="5.10" departSpeed="9.56" departDelay="0.00" arrival="133.00" arrivalLane="1o_0" arrivalPos="488.65" arrivalSpeed="9.71" duration="118.00" routeLength="995.39" waitingTime="16.00" waitingCount="1" stopTime="0.00" timeLoss="27.06" rerouteNo="0" devices="tripinfo_e2w_18" vType="stdSKVehicle" speedFactor="0.94" vaporized=""/>
    <tripinfo id="w2e_20" depart="16.00" departLane="1fi_1" departPos="5.10" departSpeed="1.78" departDelay="0.00" arrival="133.00" arrivalLane="2o_1" arrivalPos="488.65" arrivalSpeed="10.30" duration="117.00" routeLength="995.39" waitingTime="16.00" waitingCount="1" stopTime="0.00" timeLoss="33.30" rerouteNo="0" devices="tripinfo_w2e_20" vType="stdSKVehicle" speedFactor="1.02" vaporized=""/>
    <tripinfo id="w2e_51" depart="43.00" departLane="1fi_1" departPos="5.10" departSpeed="4.72" departDelay="0.00" arrival="134.00" arrivalLane="2o_2" arrivalPos="488.65" arrivalSpeed="12.37" duration="91.00" routeLength="995.39" waitingTime="3.00" waitingCount="1" stopTime="0.00" timeLoss="17.86" rerouteNo="0" devices="tripinfo_w2e_51" vType="stdSKVehicle" speedFactor="1.17" vaporized=""/>
    <tripinfo id="e2w_34" depart="28.00" departLane="2fi_1" departPos="5.10" departSpeed="4.46" departDelay="0.00" arrival="134.00" arrivalLane="1o_1" arrivalPos="488.65" arrivalSpeed="10.95" duration="106.00" routeLength="995.39" waitingTime="7.00" waitingCount="1" stopTime="0.00" timeLoss="20.38" rerouteNo="0" devices="tripinfo_e2w_34" vType="stdSKVehicle" speedFactor="0.99" vaporized=""/>
    <tripinfo id="e2w_27" depart="21.00" departLane="2fi_1" departPos="5.10" departSpeed="7.54" departDelay="0.00" arrival="135.00" arrivalLane="1o_0" arrivalPos="488.65" arrivalSpeed="10.45" duration="114.00" routeLength="995.39" waitingTime="12.00" waitingCount="1" stopTime="0.00" timeLoss="24.09" rerouteNo="0" devices="tripinfo_e2w_27" vType="stdSKVehicle" speedFactor="0.95" vaporized=""/>
    <tripinfo id="e2w_29" depart="23.00" departLane="2fi_0" departPos="5.10" departSpeed="0.41" departDelay="0.00" arrival="137.00" arrivalLane="1o_0" arrivalPos="488.65" arrivalSpeed="9.71" duration="114.00" routeLength="995.39" waitingTime="9.00" waitingCount="1" stopTime="0.00" timeLoss="22.66" rerouteNo="0" devices="tripinfo_e2w_29" vType="stdSKVehicle" speedFactor="0.93" vaporized=""/>
    <tripinfo id="w2e_14" depart="12.00" departLane="1fi_1" departPos="5.10" departSpeed="5.43" departDelay="0.00" arrival="137.00" arrivalLane="2o_0" arrivalPos="488.65" arrivalSpeed="10.30" duration="125.00" routeLength="995.39" waitingTime="19.00" waitingCount="1" stopTime="0.00" timeLoss="38.27" rerouteNo="0" devices="tripinfo_w2e_14" vType="stdSKVehicle" speedFactor="0.99" vaporized=""/>
    <tripinfo id="w2s_21" depart="16.00" departLane="1fi_0" departPos="5.10" departSpeed="1.45" departDelay="0.00" arrival="137.00" arrivalLane="3o_0" arrivalPos="488.65" arrivalSpeed="10.62" duration="121.00" routeLength="977.69" waitingTime="19.00" waitingCount="1" stopTime="0.00" timeLoss="37.73" rerouteNo="0" devices="tripinfo_w2s_21" vType="stdSKVehicle" speedFactor="1.01" vaporized=""/>
    <tripinfo id="e2w_53" depart="45.00" departLane="2fi_0" departPos="5.10" departSpeed="1.19" departDelay="0.00" arrival="138.00" arrivalLane="1o_2" arrivalPos="488.65" arrivalSpeed="11.12" duration="93.00" routeLength="995.39" waitingTime="0.00" waitingCount="0" stopTime="0.00" timeLoss="14.51" rerouteNo="0" devices="tripinfo_e2w_53" vType="stdSKVehicle" speedFactor="1.10" vaporized=""/>
    <tripinfo id="e2w_57" depart="48.00" departLane="2fi_1" departPos="5.10" departSpeed="1.84" departDelay="0.00" arrival="138.00" arrivalLane="1o_1" arrivalPos="488.65" arrivalSpeed="12.30" duration="90.00" routeLength="995.39" waitingTime="0.00" waitingCount="0" stopTime="0.00" timeLoss="15.50" rerouteNo="0" devices="tripinfo_e2w_57" vType="stdSKVehicle" speedFactor="1.14" vaporized=""/>
    <tripinfo id="e2w_36" depart="31.00" departLane="2fi_0" departPos="5.10" departSpeed="9.13" departDelay="0.00" arrival="139.00" arrivalLane="1o_0" arrivalPos="488.65" arrivalSpeed="10.74" duration="108.00" routeLength="995.39" waitingTime="6.00" waitingCount="1" stopTime="0.00" timeLoss="20.29" rerouteNo="0" devices="tripinfo_e2w_36" vType="stdSKVehicle" speedFactor="0.97" vaporized=""/>
    <tripinfo id="w2s_60" depart="51.00" departLane="1fi_1" departPos="5.10" departSpeed="5.63" departDelay="1.00" arrival="139.00" arrivalLane="3o_1" arrivalPos="488.65" arrivalSpeed="10.74" duration="88.00" routeLength="977.69" waitingTime="0.00" waitingCount="0" stopTime="0.00" timeLoss="10.00" rerouteNo="0" devices="tripinfo_w2s_60" vType="stdSKVehicle" speedFactor="1.08" vaporized=""/>
    <tripinfo id="w2s_9" depart="9.00" departLane="1fi_0" departPos="5.10" departSpeed="5.68" departDelay="0.00" arrival="140.00" arrivalLane="3o_0" arrivalPos="488.65" arrivalSpeed="8.72" duration="131.00" routeLength="977.69" waitingTime="20.00" waitingCount="1" stopTime="0.00" timeLoss="33.24" rerouteNo="0" devices="tripinfo_w2s_9" vType="stdSKVehicle" speedFactor="0.86" vaporized=""/>
    <tripinfo id="w2s_61" depart="52.00" departLane="1fi_0" departPos="5.10" departSpeed="6.25" departDelay="1.00" arrival="141.00" arrivalLane="3o_1" arrivalPos="488.65" arrivalSpeed="11.69" duration="89.00" routeLength="977.69" waitingTime="0.00" waitingCount="0" stopTime="0.00" timeLoss="13.63" rerouteNo="0" devices="tripinfo_w2s_61" vType="stdSKVehicle" speedFactor="1.12" vaporized=""/>
    <tripinfo id="w2e_5" depart="7.00" departLane="1fi_1" departPos="5.10" departSpeed="0.30" departDelay="0.00" arrival="142.00" arrivalLane="2o_0" arrivalPos="488.65" arrivalSpeed="8.33" duration="135.00" routeLength="995.39" waitingTime="19.00" waitingCount="1" stopTime="0.00" timeLoss="32.47" rerouteNo="0" devices="tripinfo_w2e_5" vType="stdSKVehicle" speedFactor="0.83" vaporized=""/>
    <tripinfo id="e2w_54" depart="47.00" departLane="2fi_0" departPos="5.10" departSpeed="2.44" departDelay="1.00" arrival="143.00" arrivalLane="1o_2" arrivalPos="488.65" arrivalSpeed="10.99" duration="96.00" routeLength="995.39" waitingTime="0.00" waitingCount="0" stopTime="0.00" timeLoss="11.09" rerouteNo="0" devices="tripinfo_e2w_54" vType="stdSKVehicle" speedFactor="1.00" vaporized=""/>
    <tripinfo id="e2w_39" depart="36.00" departLane="2fi_1" departPos="5.10" departSpeed="2.91" departDelay="0.00" arrival="143.00" arrivalLane="1o_0" arrivalPos="488.65" arrivalSpeed="9.61" duration="107.00" routeLength="995.39" waitingTime="0.00" waitingCount="0" stopTime="0.00" timeLoss="12.19" rerouteNo="0" devices="tripinfo_e2w_39" vType="stdSKVehicle" speedFactor="0.90" vaporized=""/>
    <tripinfo id="e2w_62" depart="53.00" departLane="2fi_1" departPos="5.10" departSpeed="3.16" departDelay="0.00" arrival="144.00" arrivalLane="1o_1" arrivalPos="488.65" arrivalSpeed="10.34" duration="91.00" routeLength="995.39" waitingTime="0.00" waitingCount="0" stopTime="0.00" timeLoss="6.86" rerouteNo="0" devices="tripinfo_e2w_62" vType="stdSKVehicle" speedFactor="1.02" vaporized=""/>
    <tripinfo id="w2e_25" depart="20.00" departLane="1fi_1" departPos="5.10" departSpeed="4.54" departDelay="0.00" arrival="145.00" arrivalLane="2o_0" arrivalPos="488.65" arrivalSpeed="8.86" duration="125.00" routeLength="995.39" waitingTime="14.00" waitingCount="1" stopTime="0.00" timeLoss="27.35" rerouteNo="0" devices="tripinfo_w2e_25" vType="stdSKVehicle" speedFactor="0.87" vaporized=""/>
    <tripinfo id="w2e_68" depart="58.00" departLane="1fi_0" departPos="5.10" departSpeed="7.90" departDelay="0.00" arrival="146.00" arrivalLane="2o_2" arrivalPos="488.65" arrivalSpeed="11.36" duration="88.00" routeLength="995.39" waitingTime="0.00" waitingCount="0" stopTime="0.00" timeLoss="5.66" rerouteNo="0" devices="tripinfo_w2e_68" vType="stdSKVehicle" speedFactor="1.04" vaporized=""/>
    <tripinfo id="w2e_63" depart="54.00" departLane="1fi_1" departPos="5.10" departSpeed="10.93" departDelay="0.00" arrival="146.00" arrivalLane="2o_1" arrivalPos="488.65" arrivalSpeed="9.70" duration="92.00" routeLength="995.39" waitingTime="0.00" waitingCount="0" stopTime="0.00" timeLoss="5.64" rerouteNo="0" devices="tripinfo_w2e_63" vType="stdSKVehicle" speedFactor="0.99" vaporized=""/>
    <tripinfo id="e2w_48" depart="42.00" departLane="2fi_0" departPos="5.10" departSpeed="8.90" departDelay="0.00" arrival="147.00" arrivalLane="1o_0" arrivalPos="488.65" arrivalSpeed="8.86" duration="105.00" routeLength="995.39" waitingTime="0.00" waitingCount="0" stopTime="0.00" timeLoss="7.55" rerouteNo="0" devices="tripinfo_e2w_48" vType="stdSKVehicle" speedFactor="0.88" vaporized=""/>
    <tripinfo id="w2e_59" depart="51.00" departLane="1fi_0" departPos="5.10" departSpeed="9.69" departDelay="1.00" arrival="149.00" arrivalLane="2o_0" arrivalPos="488.65" arrivalSpeed="10.24" duration="98.00" routeLength="995.39" waitingTime="0.00" waitingCount="0" stopTime="0.00" timeLoss="9.29" rerouteNo="0" devices="tripinfo_w2e_59" vType="stdSKVehicle" speedFactor="0.97" vaporized=""/>
    <tripinfo id="e2n_50" depart="43.00" departLane="2fi_0" departPos="5.10" departSpeed="5.11" departDelay="0.00" arrival="149.00" arrivalLane="4o_0" arrivalPos="488.65" arrivalSpeed="9.48" duration="106.00" routeLength="977.69" waitingTime="0.00" waitingCount="0" stopTime="0.00" timeLoss="7.63" rerouteNo="0" devices="tripinfo_e2n_50" vType="stdSKVehicle" speedFactor="0.85" vaporized=""/>
    <tripinfo id="w2e_49" depart="42.00" departLane="1fi_0" departPos="5.10" departSpeed="0.23" departDelay="0.00" arrival="152.00" arrivalLane="2o_0" arrivalPos="488.65" arrivalSpeed="8.27" duration="110.00" routeLength="995.39" waitingTime="0.00" waitingCount="0" stopTime="0.00" timeLoss="9.11" rerouteNo="0" devices="tripinfo_w2e_49" vType="stdSKVehicle" speedFactor="0.85" vaporized=""/>
    <tripinfo id="w2e_80" depart="64.00" departLane="1fi_1" departPos="5.10" departSpeed="6.70" departDelay="0.00" arrival="153.00" arrivalLane="2o_1" arrivalPos="488.65" arrivalSpeed="11.18" duration="89.00" routeLength="995.39" waitingTime="0.00" waitingCount="0" stopTime="0.00" timeLoss="5.81" rerouteNo="0" devices="tripinfo_w2e_80" vType="stdSKVehicle" speedFactor="1.03" vaporized=""/>
    <tripinfo id="e2w_69" depart="59.00" departLane="2fi_1" departPos="5.10" departSpeed="0.28" departDelay="0.00" arrival="155.00" arrivalLane="1o_0" arrivalPos="488.65" arrivalSpeed="10.78" duration="96.00" routeLength="995.39" waitingTime="0.00" waitingCount="0" stopTime="0.00" timeLoss="12.05" rerouteNo="0" devices="tripinfo_e2w_69" vType="stdSKVehicle" speedFactor="1.02" vaporized=""/>
    <tripinfo id="e2w_67" depart="58.00" departLane="2fi_1" departPos="5.10" departSpeed="6.56" departDelay="0.00" arrival="158.00" arrivalLane="1o_0" arrivalPos="488.65" arrivalSpeed="9.64" duration="100.00" routeLength="995.39" waitingTime="0.00" waitingCount="0" stopTime="0.00" timeLoss="6.42" rerouteNo="0" devices="tripinfo_e2w_67" vType="stdSKVehicle" speedFactor="0.91" vaporized=""/>
    <tripinfo id="e2n_66" depart="57.00" departLane="2fi_0" departPos="5.10" departSpeed="4.81" departDelay="0.00" arrival="158.00" arrivalLane="4o_0" arrivalPos="488.65" arrivalSpeed="9.89" duration="101.00" routeLength="977.69" waitingTime="0.00" waitingCount="0" stopTime="0.00" timeLoss="8.61" rerouteNo="0" devices="tripinfo_e2n_66" vType="stdSKVehicle" speedFactor="0.91" vaporized=""/>
    <tripinfo id="e2s_42" depart="37.00" departLane="2fi_0" departPos="5.10" departSpeed="5.21" departDelay="0.00" arrival="162.00" arrivalLane="3o_1" arrivalPos="488.65" arrivalSpeed="10.83" duration="125.00" routeLength="993.65" waitingTime="33.00" waitingCount="1" stopTime="0.00" timeLoss="46.71" rerouteNo="0" devices="tripinfo_e2s_42" vType="stdSKVehicle" speedFactor="1.09" vaporized=""/>
    <tripinfo id="w2n_17" depart="14.00" departLane="1fi_1" departPos="5.10" departSpeed="6.20" departDelay="0.00" arrival="163.00" arrivalLane="4o_0" arrivalPos="488.65" arrivalSpeed="9.91" duration="149.00" routeLength="993.65" waitingTime="47.00" waitingCount="1" stopTime="0.00" timeLoss="58.44" rerouteNo="0" devices="tripinfo_w2n_17" vType="stdSKVehicle" speedFactor="0.94" vaporized=""/>
    <tripinfo id="w2n_58" depart="48.00" departLane="1fi_1" departPos="5.10" departSpeed="0.44" departDelay="0.00" arrival="164.00" arrivalLane="4o_1" arrivalPos="488.65" arrivalSpeed="11.24" duration="116.00" routeLength="993.65" waitingTime="18.00" waitingCount="1" stopTime="0.00" timeLoss="32.89" rerouteNo="0" devices="tripinfo_w2n_58" vType="stdSKVehicle" speedFactor="1.02" vaporized=""/>
    <tripinfo id="e2s_8" depart="9.00" departLane="2fi_0" departPos="5.10" departSpeed="6.96" departDelay="0.00" arrival="164.00" arrivalLane="3o_0" arrivalPos="488.65" arrivalSpeed="9.41" duration="155.00" routeLength="993.65" waitingTime="53.00" waitingCount="1" stopTime="0.00" timeLoss="63.91" rerouteNo="0" devices="tripinfo_e2s_8" vType="stdSKVehicle" speedFactor="0.94" vaporized=""/>
    <tripinfo id="w2n_95" depart="77.00" departLane="1fi_1" departPos="5.10" departSpeed="0.47" departDelay="0.00" arrival="165.00" arrivalLane="4o_2" arrivalPos="488.65" arrivalSpeed="11.69" duration="88.00" routeLength="993.65" waitingTime="0.00" waitingCount="0" stopTime="0.00" timeLoss="7.35" rerouteNo="0" devices="tripinfo_w2n_95" vType="stdSKVehicle" speedFactor="1.06" vaporized=""/>
    <tripinfo id="w2n_47" depart="41.00" departLane="1fi_1" departPos="5.10" departSpeed="5.16" departDelay="0.00" arrival="168.00" arrivalLane="4o_0" arrivalPos="488.65" arrivalSpeed="9.61" duration="127.00" routeLength="993.65" waitingTime="20.00" waitingCount="1" stopTime="0.00" timeLoss="32.51" rerouteNo="0" devices="tripinfo_w2n_47" vType="stdSKVehicle" speedFactor="0.90" vaporized=""/>
    <tripinfo id="e2s_70" depart="60.00" departLane="2fi_0" departPos="5.10" departSpeed="7.17" departDelay="1.00" arrival="169.00" arrivalLane="3o_1" arrivalPos="488.65" arrivalSpeed="10.12" duration="109.00" routeLength="993.65" waitingTime="8.00" waitingCount="1" stopTime="0.00" timeLoss="25.54" rerouteNo="0" devices="tripinfo_e2s_70" vType="stdSKVehicle" speedFactor="1.02" vaporized=""/>
    <tripinfo id="e2s_64" depart="55.00" departLane="2fi_0" departPos="5.10" departSpeed="3.52" departDelay="0.00" arrival="170.00" arrivalLane="3o_0" arrivalPos="488.65" arrivalSpeed="10.05" duration="115.00" routeLength="993.65" waitingTime="11.00" waitingCount="1" stopTime="0.00" timeLoss="24.28" rerouteNo="0" devices="tripinfo_e2s_64" vType="stdSKVehicle" speedFactor="0.94" vaporized=""/>
    <tripinfo id="s2n_44" depart="39.00" departLane="3fi_1" departPos="5.10" departSpeed="1.34" departDelay="0.00" arrival="172.00" arrivalLane="4o_1" arrivalPos="488.65" arrivalSpeed="11.27" duration="133.00" routeLength="995.39" waitingTime="41.00" waitingCount="1" stopTime="0.00" timeLoss="50.84" rerouteNo="0" devices="tripinfo_s2n_44" vType="stdSKVehicle" speedFactor="1.04" vaporized=""/>
    <tripinfo id="n2w_38" depart="36.00" departLane="4fi_1" departPos="5.10" departSpeed="5.19" departDelay="0.00" arrival="173.00" arrivalLane="1o_0" arrivalPos="488.65" arrivalSpeed="11.50" duration="137.00" routeLength="977.69" waitingTime="49.00" waitingCount="1" stopTime="0.00" timeLoss="60.41" rerouteNo="0" devices="tripinfo_n2w_38" vType="stdSKVehicle" speedFactor="1.10" vaporized=""/>
    <tripinfo id="e2s_24" depart="19.00" departLane="2fi_1" departPos="5.10" departSpeed="4.37" departDelay="0.00" arrival="173.00" arrivalLane="3o_0" arrivalPos="488.65" arrivalSpeed="8.27" duration="154.00" routeLength="993.65" waitingTime="38.00" waitingCount="1" stopTime="0.00" timeLoss="51.08" rerouteNo="0" devices="tripinfo_e2s_24" vType="stdSKVehicle" speedFactor="0.83" vaporized=""/>
    <tripinfo id="s2n_40" depart="36.00" departLane="3fi_1" departPos="5.10" departSpeed="11.15" departDelay="0.00" arrival="173.00" arrivalLane="4o_0" arrivalPos="488.65" arrivalSpeed="10.16" duration="137.00" routeLength="995.39" waitingTime="43.00" waitingCount="1" stopTime="0.00" timeLoss="54.02" rerouteNo="0" devices="tripinfo_s2n_40" vType="stdSKVehicle" speedFactor="1.03" vaporized=""/>
    <tripinfo id="n2w_35" depart="30.00" departLane="4fi_0" departPos="5.10" departSpeed="11.09" departDelay="0.00" arrival="174.00" arrivalLane="1o_0" arrivalPos="488.65" arrivalSpeed="11.29" duration="144.00" routeLength="977.69" waitingTime="51.00" waitingCount="1" stopTime="0.00" timeLoss="61.77" rerouteNo="0" devices="tripinfo_n2w_35" vType="stdSKVehicle" speedFactor="1.02" vaporized=""/>
    <tripinfo id="n2s_32" depart="24.00" departLane="4fi_1" departPos="5.10" departSpeed="9.68" departDelay="0.00" arrival="175.00" arrivalLane="3o_1" arrivalPos="488.65" arrivalSpeed="10.97" duration="151.00" routeLength="995.39" waitingTime="52.00" waitingCount="1" stopTime="0.00" timeLoss="66.00" rerouteNo="0" devices="tripinfo_n2s_32" vType="stdSKVehicle" speedFactor="1.01" vaporized=""/>
    <tripinfo id="s2n_43" depart="38.00" departLane="3fi_0" departPos="5.10" departSpeed="7.89" departDelay="0.00" arrival="175.00" arrivalLane="4o_0" arrivalPos="488.65" arrivalSpeed="11.28" duration="137.00" routeLength="995.39" waitingTime="42.00" waitingCount="1" stopTime="0.00" timeLoss="54.42" rerouteNo="0" devices="tripinfo_s2n_43" vType="stdSKVehicle" speedFactor="1.04" vaporized=""/>
    <tripinfo id="s2n_98" depart="80.00" departLane="3fi_1" departPos="5.10" departSpeed="4.20" departDelay="1.00" arrival="176.00" arrivalLane="4o_2" arrivalPos="488.65" arrivalSpeed="11.38" duration="96.00" routeLength="995.39" waitingTime="6.00" waitingCount="1" stopTime="0.00" timeLoss="20.00" rerouteNo="0" devices="tripinfo_s2n_98" vType="stdSKVehicle" speedFactor="1.12" vaporized=""/>
    <tripinfo id="s2n_46" depart="41.00" departLane="3fi_1" departPos="5.10" departSpeed="2.50" departDelay="0.00" arrival="177.00" arrivalLane="4o_1" arrivalPos="488.65" arrivalSpeed="10.78" duration="136.00" routeLength="995.39" waitingTime="36.00" waitingCount="1" stopTime="0.00" timeLoss="50.07" rerouteNo="0" devices="tripinfo_s2n_46" vType="stdSKVehicle" speedFactor="1.00" vaporized=""/>
    <tripinfo id="n2s_73" depart="61.00" departLane="4fi_1" departPos="5.10" departSpeed="6.40" departDelay="0.00" arrival="178.00" arrivalLane="3o_2" arrivalPos="488.65" arrivalSpeed="11.32" duration="117.00" routeLength="995.39" waitingTime="24.00" waitingCount="1" stopTime="0.00" timeLoss="36.31" rerouteNo="0" devices="tripinfo_n2s_73" vType="stdSKVehicle" speedFactor="1.06" vaporized=""/>
    <tripinfo id="s2n_52" depart="44.00" departLane="3fi_0" departPos="5.10" departSpeed="6.51" departDelay="0.00" arrival="178.00" arrivalLane="4o_0" arrivalPos="488.65" arrivalSpeed="10.78" duration="134.00" routeLength="995.39" waitingTime="37.00" waitingCount="1" stopTime="0.00" timeLoss="49.98" rerouteNo="0" devices="tripinfo_s2n_52" vType="stdSKVehicle" speedFactor="1.02" vaporized=""/>
    <tripinfo id="n2s_41" depart="37.00" departLane="4fi_0" departPos="5.10" departSpeed="4.07" departDelay="0.00" arrival="179.00" arrivalLane="3o_1" arrivalPos="488.65" arrivalSpeed="9.94" duration="142.00" routeLength="995.39" waitingTime="40.00" waitingCount="1" stopTime="0.00" timeLoss="52.62" rerouteNo="0" devices="tripinfo_n2s_41" vType="stdSKVehicle" speedFactor="0.96" vaporized=""/>
    <tripinfo id="n2s_26" depart="21.00" departLane="4fi_1" departPos="5.10" departSpeed="3.56" departDelay="0.00" arrival="179.00" arrivalLane="3o_0" arrivalPos="488.65" arrivalSpeed="10.11" duration="158.00" routeLength="995.39" waitingTime="52.00" waitingCount="1" stopTime="0.00" timeLoss="64.81" rerouteNo="0" devices="tripinfo_n2s_26" vType="stdSKVehicle" speedFactor="0.92" vaporized=""/>
    <tripinfo id="s2n_77" depart="62.00" departLane="3fi_1" departPos="5.10" departSpeed="0.08" departDelay="0.00" arrival="180.00" arrivalLane="4o_1" arrivalPos="488.65" arrivalSpeed="10.28" duration="118.00" routeLength="995.39" waitingTime="17.00" waitingCount="1" stopTime="0.00" timeLoss="30.94" rerouteNo="0" devices="tripinfo_s2n_77" vType="stdSKVehicle" speedFactor="0.98" vaporized=""/>
    <tripinfo id="s2e_105" depart="88.00" departLane="3fi_1" departPos="5.10" departSpeed="3.58" departDelay="2.00" arrival="180.00" arrivalLane="2o_0" arrivalPos="488.65" arrivalSpeed="10.90" duration="92.00" routeLength="977.69" waitingTime="0.00" waitingCount="0" stopTime="0.00" timeLoss="13.21" rerouteNo="0" devices="tripinfo_s2e_105" vType="stdSKVehicle" speedFactor="1.07" vaporized=""/>