<?xml version="1.0" encoding="UTF-8"?>

<!-- generated on 03/23/19 17:14:35 by Eclipse SUMO GUI Version 1.1.0
<configuration xmlns:xsi="http://www.w3.org/2001/XMLSchema-instance" xsi:noNamespaceSchemaLocation="http://sumo.dlr.de/xsd/sumoConfiguration.xsd">

    <input>
        <net-file value="data/net.net.xml"/>
        <route-files value="data/net.rou.xml"/>
    </input>

    <output>
        <tripinfo-output value="tripinfo.xml"/>
    </output>

    <time>
        <begin value="0"/>
    </time>

    <report>
        <verbose value="true"/>
        <no-step-log value="true"/>
    </report>

    <traci_server>
        <remote-port value="62111"/>
    </traci_server>

</configuration>
-->

<tripinfos xmlns:xsi="http://www.w3.org/2001/XMLSchema-instance" xsi:noNamespaceSchemaLocation="http://sumo.dlr.de/xsd/tripinfo_file.xsd">
    <tripinfo id="w2n_0" depart="0.00" departLane="1fi_0" departPos="5.10" departSpeed="8.39" departDelay="0.00" arrival="92.00" arrivalLane="4o_0" arrivalPos="488.65" arrivalSpeed="10.51" duration="92.00" routeLength="993.65" waitingTime="2.00" waitingCount="1" stopTime="0.00" timeLoss="11.73" rerouteNo="0" devices="tripinfo_w2n_0" vType="stdSKVehicle" speedFactor="1.06" vaporized=""/>
    <tripinfo id="n2s_10" depart="10.00" departLane="4fi_1" departPos="5.10" departSpeed="0.34" departDelay="0.00" arrival="105.00" arrivalLane="3o_1" arrivalPos="488.65" arrivalSpeed="11.39" duration="95.00" routeLength="995.39" waitingTime="6.00" waitingCount="1" stopTime="0.00" timeLoss="17.06" rerouteNo="0" devices="tripinfo_n2s_10" vType="stdSKVehicle" speedFactor="1.09" vaporized=""/>
    <tripinfo id="e2s_8" depart="9.00" departLane="2fi_0" departPos="5.10" departSpeed="6.96" departDelay="0.00" arrival="106.00" arrivalLane="3o_0" arrivalPos="488.65" arrivalSpeed="9.48" duration="97.00" routeLength="993.65" waitingTime="0.00" waitingCount="0" stopTime="0.00" timeLoss="6.39" rerouteNo="0" devices="tripinfo_e2s_8" vType="stdSKVehicle" speedFactor="0.94" vaporized=""/>
    <tripinfo id="s2n_6" depart="8.00" departLane="3fi_0" departPos="5.10" departSpeed="1.50" departDelay="0.00" arrival="107.00" arrivalLane="4o_0" arrivalPos="488.65" arrivalSpeed="10.46" duration="99.00" routeLength="995.39" waitingTime="6.00" waitingCount="1" stopTime="0.00" timeLoss="17.29" rerouteNo="0" devices="tripinfo_s2n_6" vType="stdSKVehicle" speedFactor="1.05" vaporized=""/>
    <tripinfo id="n2s_14" depart="13.00" departLane="4fi_0" departPos="5.10" departSpeed="7.29" departDelay="0.00" arrival="110.00" arrivalLane="3o_1" arrivalPos="488.65" arrivalSpeed="9.77" duration="97.00" routeLength="995.39" waitingTime="0.00" waitingCount="0" stopTime="0.00" timeLoss="10.45" rerouteNo="0" devices="tripinfo_n2s_14" vType="stdSKVehicle" speedFactor="0.99" vaporized=""/>
    <tripinfo id="n2s_20" depart="17.00" departLane="4fi_1" departPos="5.10" departSpeed="2.16" departDelay="0.00" arrival="111.00" arrivalLane="3o_0" arrivalPos="488.65" arrivalSpeed="10.26" duration="94.00" routeLength="995.39" waitingTime="0.00" waitingCount="0" stopTime="0.00" timeLoss="9.63" rerouteNo="0" devices="tripinfo_n2s_20" vType="stdSKVehicle" speedFactor="1.02" vaporized=""/>
    <tripinfo id="n2s_21" depart="21.00" departLane="4fi_0" departPos="5.10" departSpeed="0.30" departDelay="0.00" arrival="113.00" arrivalLane="3o_0" arrivalPos="488.65" arrivalSpeed="10.23" duration="92.00" routeLength="995.39" waitingTime="0.00" waitingCount="0" stopTime="0.00" timeLoss="7.21" rerouteNo="0" devices="tripinfo_n2s_21" vType="stdSKVehicle" speedFactor="1.01" vaporized=""/>
    <tripinfo id="s2n_17" depart="15.00" departLane="3fi_1" departPos="5.10" departSpeed="1.75" departDelay="0.00" arrival="113.00" arrivalLane="4o_0" arrivalPos="488.65" arrivalSpeed="9.70" duration="98.00" routeLength="995.39" waitingTime="0.00" waitingCount="0" stopTime="0.00" timeLoss="7.64" rerouteNo="0" devices="tripinfo_s2n_17" vType="stdSKVehicle" speedFactor="0.94" vaporized=""/>
    <tripinfo id="s2w_3" depart="5.00" departLane="3fi_1" departPos="5.10" departSpeed="10.53" departDelay="0.00" arrival="121.00" arrivalLane="1o_0" arrivalPos="488.65" arrivalSpeed="11.38" duration="116.00" routeLength="993.65" waitingTime="28.00" waitingCount="1" stopTime="0.00" timeLoss="36.79" rerouteNo="0" devices="tripinfo_s2w_3" vType="stdSKVehicle" speedFactor="1.08" vaporized=""/>
    <tripinfo id="n2s_27" depart="24.00" departLane="4fi_0" departPos="5.10" departSpeed="1.54" departDelay="0.00" arrival="122.00" arrivalLane="3o_0" arrivalPos="488.65" arrivalSpeed="9.52" duration="98.00" routeLength="995.39" waitingTime="0.00" waitingCount="0" stopTime="0.00" timeLoss="7.57" rerouteNo="0" devices="tripinfo_n2s_27" vType="stdSKVehicle" speedFactor="0.95" vaporized=""/>
    <tripinfo id="n2e_7" depart="9.00" departLane="4fi_0" departPos="5.10" departSpeed="7.99" departDelay="0.00" arrival="131.00" arrivalLane="2o_0" arrivalPos="488.65" arrivalSpeed="9.76" duration="122.00" routeLength="993.65" waitingTime="14.00" waitingCount="1" stopTime="0.00" timeLoss="25.43" rerouteNo="0" devices="tripinfo_n2e_7" vType="stdSKVehicle" speedFactor="0.89" vaporized=""/>
    <tripinfo id="e2n_12" depart="10.00" departLane="2fi_0" departPos="5.10" departSpeed="0.78" departDelay="0.00" arrival="132.00" arrivalLane="4o_0" arrivalPos="488.65" arrivalSpeed="11.18" duration="122.00" routeLength="977.69" waitingTime="27.00" waitingCount="1" stopTime="0.00" timeLoss="41.45" rerouteNo="0" devices="tripinfo_e2n_12" vType="stdSKVehicle" speedFactor="1.05" vaporized=""/>
    <tripinfo id="e2w_31" depart="31.00" departLane="2fi_0" departPos="5.10" departSpeed="11.67" departDelay="0.00" arrival="133.00" arrivalLane="1o_1" arrivalPos="488.65" arrivalSpeed="12.46" duration="102.00" routeLength="995.39" waitingTime="10.00" waitingCount="1" stopTime="0.00" timeLoss="28.20" rerouteNo="0" devices="tripinfo_e2w_31" vType="stdSKVehicle" speedFactor="1.15" vaporized=""/>
    <tripinfo id="e2w_11" depart="10.00" departLane="2fi_1" departPos="5.10" departSpeed="6.23" departDelay="0.00" arrival="133.00" arrivalLane="1o_0" arrivalPos="488.65" arrivalSpeed="11.11" duration="123.00" routeLength="995.39" waitingTime="29.00" waitingCount="1" stopTime="0.00" timeLoss="39.25" rerouteNo="0" devices="tripinfo_e2w_11" vType="stdSKVehicle" speedFactor="1.03" vaporized=""/>
    <tripinfo id="w2e_4" depart="6.00" departLane="1fi_0" departPos="5.10" departSpeed="7.25" departDelay="0.00" arrival="133.00" arrivalLane="2o_0" arrivalPos="488.65" arrivalSpeed="10.26" duration="127.00" routeLength="995.39" waitingTime="31.00" waitingCount="1" stopTime="0.00" timeLoss="43.70" rerouteNo="0" devices="tripinfo_w2e_4" vType="stdSKVehicle" speedFactor="1.03" vaporized=""/>
    <tripinfo id="w2e_13" depart="12.00" departLane="1fi_1" departPos="5.10" departSpeed="10.92" departDelay="0.00" arrival="133.00" arrivalLane="2o_1" arrivalPos="488.65" arrivalSpeed="12.26" duration="121.00" routeLength="995.39" waitingTime="25.00" waitingCount="1" stopTime="0.00" timeLoss="45.23" rerouteNo="0" devices="tripinfo_w2e_13" vType="stdSKVehicle" speedFactor="1.12" vaporized=""/>
    <tripinfo id="w2s_19" depart="18.00" departLane="1fi_0" departPos="5.10" departSpeed="7.78" departDelay="2.00" arrival="133.00" arrivalLane="3o_1" arrivalPos="488.65" arrivalSpeed="12.06" duration="115.00" routeLength="977.69" waitingTime="24.00" waitingCount="1" stopTime="0.00" timeLoss="42.20" rerouteNo="0" devices="tripinfo_w2s_19" vType="stdSKVehicle" speedFactor="1.16" vaporized=""/>
    <tripinfo id="w2s_2" depart="4.00" departLane="1fi_1" departPos="5.10" departSpeed="5.23" departDelay="0.00" arrival="134.00" arrivalLane="3o_0" arrivalPos="488.65" arrivalSpeed="11.14" duration="130.00" routeLength="977.69" waitingTime="32.00" waitingCount="1" stopTime="0.00" timeLoss="46.44" rerouteNo="0" devices="tripinfo_w2s_2" vType="stdSKVehicle" speedFactor="1.01" vaporized=""/>
    <tripinfo id="w2e_1" depart="1.00" departLane="1fi_1" departPos="5.10" departSpeed="6.15" departDelay="0.00" arrival="136.00" arrivalLane="2o_0" arrivalPos="488.65" arrivalSpeed="9.96" duration="135.00" routeLength="995.39" waitingTime="33.00" waitingCount="1" stopTime="0.00" timeLoss="44.30" rerouteNo="0" devices="tripinfo_w2e_1" vType="stdSKVehicle" speedFactor="0.94" vaporized=""/>
    <tripinfo id="e2w_22" depart="21.00" departLane="2fi_1" departPos="5.10" departSpeed="5.07" departDelay="0.00" arrival="138.00" arrivalLane="1o_0" arrivalPos="488.65" arrivalSpeed="10.17" duration="117.00" routeLength="995.39" waitingTime="16.00" waitingCount="1" stopTime="0.00" timeLoss="29.05" rerouteNo="0" devices="tripinfo_e2w_22" vType="stdSKVehicle" speedFactor="0.98" vaporized=""/>
    <tripinfo id="e2w_45" depart="46.00" departLane="2fi_0" departPos="5.10" departSpeed="8.16" departDelay="0.00" arrival="140.00" arrivalLane="1o_2" arrivalPos="488.65" arrivalSpeed="11.07" duration="94.00" routeLength="995.39" waitingTime="3.00" waitingCount="1" stopTime="0.00" timeLoss="15.57" rerouteNo="0" devices="tripinfo_e2w_45" vType="stdSKVehicle" speedFactor="1.09" vaporized=""/>
    <tripinfo id="e2w_29" depart="28.00" departLane="2fi_1" departPos="5.10" departSpeed="8.56" departDelay="0.00" arrival="141.00" arrivalLane="1o_1" arrivalPos="488.65" arrivalSpeed="9.10" duration="113.00" routeLength="995.39" waitingTime="10.00" waitingCount="1" stopTime="0.00" timeLoss="21.29" rerouteNo="0" devices="tripinfo_e2w_29" vType="stdSKVehicle" speedFactor="0.93" vaporized=""/>
    <tripinfo id="e2w_16" depart="15.00" departLane="2fi_0" departPos="5.10" departSpeed="4.71" departDelay="0.00" arrival="141.00" arrivalLane="1o_0" arrivalPos="488.65" arrivalSpeed="9.23" duration="126.00" routeLength="995.39" waitingTime="17.00" waitingCount="1" stopTime="0.00" timeLoss="28.38" rerouteNo="0" devices="tripinfo_e2w_16" vType="stdSKVehicle" speedFactor="0.88" vaporized=""/>
    <tripinfo id="w2e_43" depart="43.00" departLane="1fi_0" departPos="5.10" departSpeed="5.99" departDelay="1.00" arrival="141.00" arrivalLane="2o_1" arrivalPos="488.65" arrivalSpeed="10.26" duration="98.00" routeLength="995.39" waitingTime="3.00" waitingCount="1" stopTime="0.00" timeLoss="15.91" rerouteNo="0" devices="tripinfo_w2e_43" vType="stdSKVehicle" speedFactor="1.04" vaporized=""/>
    <tripinfo id="e2w_42" depart="42.00" departLane="2fi_1" departPos="5.10" departSpeed="2.15" departDelay="0.00" arrival="142.00" arrivalLane="1o_2" arrivalPos="488.65" arrivalSpeed="11.89" duration="100.00" routeLength="995.39" waitingTime="6.00" waitingCount="1" stopTime="0.00" timeLoss="22.01" rerouteNo="0" devices="tripinfo_e2w_42" vType="stdSKVehicle" speedFactor="1.09" vaporized=""/>
    <tripinfo id="e2w_28" depart="25.00" departLane="2fi_1" departPos="5.10" departSpeed="8.03" departDelay="0.00" arrival="142.00" arrivalLane="1o_0" arrivalPos="488.65" arrivalSpeed="10.52" duration="117.00" routeLength="995.39" waitingTime="20.00" waitingCount="1" stopTime="0.00" timeLoss="41.80" rerouteNo="0" devices="tripinfo_e2w_28" vType="stdSKVehicle" speedFactor="1.13" vaporized=""/>
    <tripinfo id="e2w_34" depart="36.00" departLane="2fi_0" departPos="5.10" departSpeed="9.81" departDelay="0.00" arrival="143.00" arrivalLane="1o_1" arrivalPos="488.65" arrivalSpeed="10.69" duration="107.00" routeLength="995.39" waitingTime="8.00" waitingCount="1" stopTime="0.00" timeLoss="20.89" rerouteNo="0" devices="tripinfo_e2w_34" vType="stdSKVehicle" speedFactor="0.99" vaporized=""/>
    <tripinfo id="w2e_18" depart="16.00" departLane="1fi_1" departPos="5.10" departSpeed="4.81" departDelay="0.00" arrival="143.00" arrivalLane="2o_0" arrivalPos="488.65" arrivalSpeed="10.10" duration="127.00" routeLength="995.39" waitingTime="21.00" waitingCount="1" stopTime="0.00" timeLoss="35.34" rerouteNo="0" devices="tripinfo_w2e_18" vType="stdSKVehicle" speedFactor="0.94" vaporized=""/>
    <tripinfo id="w2e_44" depart="43.00" departLane="1fi_1" departPos="5.10" departSpeed="1.67" departDelay="0.00" arrival="143.00" arrivalLane="2o_1" arrivalPos="488.65" arrivalSpeed="10.63" duration="100.00" routeLength="995.39" waitingTime="0.00" waitingCount="0" stopTime="0.00" timeLoss="18.33" rerouteNo="0" devices="tripinfo_w2e_44" vType="stdSKVehicle" speedFactor="1.04" vaporized=""/>
    <tripinfo id="e2w_51" depart="53.00" departLane="2fi_1" departPos="5.10" departSpeed="3.87" departDelay="0.00" arrival="144.00" arrivalLane="1o_0" arrivalPos="488.65" arrivalSpeed="11.76" duration="91.00" routeLength="995.39" waitingTime="0.00" waitingCount="0" stopTime="0.00" timeLoss="18.10" rerouteNo="0" devices="tripinfo_e2w_51" vType="stdSKVehicle" speedFactor="1.17" vaporized=""/>
    <tripinfo id="w2s_9" depart="9.00" departLane="1fi_0" departPos="5.10" departSpeed="5.68" departDelay="0.00" arrival="144.00" arrivalLane="3o_0" arrivalPos="488.65" arrivalSpeed="9.38" duration="135.00" routeLength="977.69" waitingTime="25.00" waitingCount="1" stopTime="0.00" timeLoss="36.88" rerouteNo="0" devices="tripinfo_w2s_9" vType="stdSKVehicle" speedFactor="0.86" vaporized=""/>
    <tripinfo id="e2w_32" depart="33.00" departLane="2fi_1" departPos="5.10" departSpeed="6.63" departDelay="0.00" arrival="146.00" arrivalLane="1o_2" arrivalPos="488.65" arrivalSpeed="10.63" duration="113.00" routeLength="995.39" waitingTime="9.00" waitingCount="1" stopTime="0.00" timeLoss="27.91" rerouteNo="0" devices="tripinfo_e2w_32" vType="stdSKVehicle" speedFactor="1.01" vaporized=""/>
    <tripinfo id="w2e_5" depart="7.00" departLane="1fi_1" departPos="5.10" departSpeed="0.30" departDelay="0.00" arrival="147.00" arrivalLane="2o_0" arrivalPos="488.65" arrivalSpeed="8.23" duration="140.00" routeLength="995.39" waitingTime="23.00" waitingCount="1" stopTime="0.00" timeLoss="36.85" rerouteNo="0" devices="tripinfo_w2e_5" vType="stdSKVehicle" speedFactor="0.83" vaporized=""/>
    <tripinfo id="w2e_26" depart="24.00" departLane="1fi_1" departPos="5.10" departSpeed="3.35" departDelay="1.00" arrival="147.00" arrivalLane="2o_1" arrivalPos="488.65" arrivalSpeed="9.63" duration="123.00" routeLength="995.39" waitingTime="15.00" waitingCount="1" stopTime="0.00" timeLoss="29.98" rerouteNo="0" devices="tripinfo_w2e_26" vType="stdSKVehicle" speedFactor="0.92" vaporized=""/>
    <tripinfo id="w2s_23" depart="22.00" departLane="1fi_0" departPos="5.10" departSpeed="3.18" departDelay="0.00" arrival="148.00" arrivalLane="3o_0" arrivalPos="488.65" arrivalSpeed="9.12" duration="126.00" routeLength="977.69" waitingTime="19.00" waitingCount="1" stopTime="0.00" timeLoss="31.23" rerouteNo="0" devices="tripinfo_w2s_23" vType="stdSKVehicle" speedFactor="0.89" vaporized=""/>
    <tripinfo id="e2w_24" depart="23.00" departLane="2fi_1" departPos="5.10" departSpeed="4.70" departDelay="0.00" arrival="149.00" arrivalLane="1o_0" arrivalPos="488.65" arrivalSpeed="8.36" duration="126.00" routeLength="995.39" waitingTime="10.00" waitingCount="1" stopTime="0.00" timeLoss="23.00" rerouteNo="0" devices="tripinfo_e2w_24" vType="stdSKVehicle" speedFactor="0.83" vaporized=""/>
    <tripinfo id="w2e_52" depart="55.00" departLane="1fi_0" departPos="5.10" departSpeed="6.51" departDelay="1.00" arrival="149.00" arrivalLane="2o_0" arrivalPos="488.65" arrivalSpeed="10.72" duration="94.00" routeLength="995.39" waitingTime="0.00" waitingCount="0" stopTime="0.00" timeLoss="9.63" rerouteNo="0" devices="tripinfo_w2e_52" vType="stdSKVehicle" speedFactor="1.02" vaporized=""/>
    <tripinfo id="e2w_55" depart="60.00" departLane="2fi_1" departPos="5.10" departSpeed="7.38" departDelay="1.00" arrival="151.00" arrivalLane="1o_1" arrivalPos="488.65" arrivalSpeed="10.90" duration="91.00" routeLength="995.39" waitingTime="0.00" waitingCount="0" stopTime="0.00" timeLoss="5.61" rerouteNo="0" devices="tripinfo_e2w_55" vType="stdSKVehicle" speedFactor="1.00" vaporized=""/>
    <tripinfo id="e2w_48" depart="48.00" departLane="2fi_0" departPos="5.10" departSpeed="2.60" departDelay="0.00" arrival="153.00" arrivalLane="1o_0" arrivalPos="488.65" arrivalSpeed="9.33" duration="105.00" routeLength="995.39" waitingTime="0.00" waitingCount="0" stopTime="0.00" timeLoss="7.58" rerouteNo="0" devices="tripinfo_e2w_48" vType="stdSKVehicle" speedFactor="0.88" vaporized=""/>
    <tripinfo id="e2w_58" depart="63.00" departLane="2fi_1" departPos="5.10" departSpeed="7.80" departDelay="3.00" arrival="154.00" arrivalLane="1o_1" arrivalPos="488.65" arrivalSpeed="10.18" duration="91.00" routeLength="995.39" waitingTime="0.00" waitingCount="0" stopTime="0.00" timeLoss="7.13" rerouteNo="0" devices="tripinfo_e2w_58" vType="stdSKVehicle" speedFactor="1.02" vaporized=""/>
    <tripinfo id="e2w_54" depart="58.00" departLane="2fi_0" departPos="5.10" departSpeed="1.77" departDelay="0.00" arrival="155.00" arrivalLane="1o_0" arrivalPos="488.65" arrivalSpeed="11.11" duration="97.00" routeLength="995.39" waitingTime="0.00" waitingCount="0" stopTime="0.00" timeLoss="11.69" rerouteNo="0" devices="tripinfo_e2w_54" vType="stdSKVehicle" speedFactor="1.00" vaporized=""/>
    <tripinfo id="e2w_59" depart="62.00" departLane="2fi_1" departPos="5.10" departSpeed="10.04" departDelay="1.00" arrival="156.00" arrivalLane="1o_1" arrivalPos="488.65" arrivalSpeed="10.57" duration="94.00" routeLength="995.39" waitingTime="0.00" waitingCount="0" stopTime="0.00" timeLoss="5.99" rerouteNo="0" devices="tripinfo_e2w_59" vType="stdSKVehicle" speedFactor="0.97" vaporized=""/>
    <tripinfo id="w2s_49" depart="50.00" departLane="1fi_0" departPos="5.10" departSpeed="0.69" departDelay="0.00" arrival="158.00" arrivalLane="3o_0" arrivalPos="488.65" arrivalSpeed="8.33" duration="108.00" routeLength="977.69" waitingTime="0.00" waitingCount="0" stopTime="0.00" timeLoss="8.94" rerouteNo="0" devices="tripinfo_w2s_49" vType="stdSKVehicle" speedFactor="0.85" vaporized=""/>
    <tripinfo id="e2s_53" depart="55.00" departLane="2fi_0" departPos="5.10" departSpeed="1.77" departDelay="0.00" arrival="159.00" arrivalLane="3o_1" arrivalPos="488.65" arrivalSpeed="12.08" duration="104.00" routeLength="993.65" waitingTime="13.00" waitingCount="1" stopTime="0.00" timeLoss="26.09" rerouteNo="0" devices="tripinfo_e2s_53" vType="stdSKVehicle" speedFactor="1.10" vaporized=""/>
    <tripinfo id="w2s_50" depart="52.00" departLane="1fi_1" departPos="5.10" departSpeed="0.71" departDelay="1.00" arrival="160.00" arrivalLane="3o_0" arrivalPos="488.65" arrivalSpeed="9.07" duration="108.00" routeLength="977.69" waitingTime="0.00" waitingCount="0" stopTime="0.00" timeLoss="9.91" rerouteNo="0" devices="tripinfo_w2s_50" vType="stdSKVehicle" speedFactor="0.85" vaporized=""/>
    <tripinfo id="e2s_61" depart="65.00" departLane="2fi_1" departPos="5.10" departSpeed="7.35" departDelay="3.00" arrival="162.00" arrivalLane="3o_1" arrivalPos="488.65" arrivalSpeed="11.60" duration="97.00" routeLength="993.65" waitingTime="1.00" waitingCount="1" stopTime="0.00" timeLoss="21.01" rerouteNo="0" devices="tripinfo_e2s_61" vType="stdSKVehicle" speedFactor="1.12" vaporized=""/>
    <tripinfo id="e2s_36" depart="37.00" departLane="2fi_1" departPos="5.10" departSpeed="3.04" departDelay="0.00" arrival="162.00" arrivalLane="3o_0" arrivalPos="488.65" arrivalSpeed="10.02" duration="125.00" routeLength="993.65" waitingTime="26.00" waitingCount="1" stopTime="0.00" timeLoss="37.70" rerouteNo="0" devices="tripinfo_e2s_36" vType="stdSKVehicle" speedFactor="0.97" vaporized=""/>
    <tripinfo id="w2n_15" depart="14.00" departLane="1fi_0" departPos="5.10" departSpeed="3.55" departDelay="0.00" arrival="164.00" arrivalLane="4o_0" arrivalPos="488.65" arrivalSpeed="9.76" duration="150.00" routeLength="993.65" waitingTime="47.00" waitingCount="1" stopTime="0.00" timeLoss="58.27" rerouteNo="0" devices="tripinfo_w2n_15" vType="stdSKVehicle" speedFactor="0.93" vaporized=""/>
    <tripinfo id="w2n_41" depart="41.00" departLane="1fi_1" departPos="5.10" departSpeed="1.42" departDelay="0.00" arrival="165.00" arrivalLane="4o_1" arrivalPos="488.65" arrivalSpeed="9.35" duration="124.00" routeLength="993.65" waitingTime="22.00" waitingCount="1" stopTime="0.00" timeLoss="34.99" rerouteNo="0" devices="tripinfo_w2n_41" vType="stdSKVehicle" speedFactor="0.96" vaporized=""/>
    <tripinfo id="n2w_30" depart="30.00" departLane="4fi_0" departPos="5.10" departSpeed="9.64" departDelay="0.00" arrival="166.00" arrivalLane="1o_0" arrivalPos="488.65" arrivalSpeed="12.00" duration="136.00" routeLength="977.69" waitingTime="49.00" waitingCount="1" stopTime="0.00" timeLoss="64.26" rerouteNo="0" devices="tripinfo_n2w_30" vType="stdSKVehicle" speedFactor="1.18" vaporized=""/>
    <tripinfo id="s2n_37" depart="38.00" departLane="3fi_1" departPos="5.10" departSpeed="11.91" departDelay="0.00" arrival="167.00" arrivalLane="4o_1" arrivalPos="488.65" arrivalSpeed="12.04" duration="129.00" routeLength="995.39" waitingTime="48.00" waitingCount="1" stopTime="0.00" timeLoss="56.93" rerouteNo="0" devices="tripinfo_s2n_37" vType="stdSKVehicle" speedFactor="1.18" vaporized=""/>
    <tripinfo id="w2n_78" depart="77.00" departLane="1fi_1" departPos="5.10" departSpeed="5.63" departDelay="0.00" arrival="167.00" arrivalLane="4o_0" arrivalPos="488.65" arrivalSpeed="10.12" duration="90.00" routeLength="993.65" waitingTime="0.00" waitingCount="0" stopTime="0.00" timeLoss="5.43" rerouteNo="0" devices="tripinfo_w2n_78" vType="stdSKVehicle" speedFactor="1.01" vaporized=""/>
    <tripinfo id="n2w_33" depart="36.00" departLane="4fi_0" departPos="5.10" departSpeed="3.64" departDelay="0.00" arrival="169.00" arrivalLane="1o_0" arrivalPos="488.65" arrivalSpeed="11.87" duration="133.00" routeLength="977.69" waitingTime="47.00" waitingCount="1" stopTime="0.00" timeLoss="60.86" rerouteNo="0" devices="tripinfo_n2w_33" vType="stdSKVehicle" speedFactor="1.17" vaporized=""/>
    <tripinfo id="e2s_56" depart="60.00" departLane="2fi_0" departPos="5.10" departSpeed="1.64" departDelay="1.00" arrival="170.00" arrivalLane="3o_0" arrivalPos="488.65" arrivalSpeed="9.25" duration="110.00" routeLength="993.65" waitingTime="2.00" waitingCount="1" stopTime="0.00" timeLoss="15.22" rerouteNo="0" devices="tripinfo_e2s_56" vType="stdSKVehicle" speedFactor="0.90" vaporized=""/>
    <tripinfo id="e2s_74" depart="74.00" departLane="2fi_0" departPos="5.10" departSpeed="2.58" departDelay="1.00" arrival="172.00" arrivalLane="3o_1" arrivalPos="488.65" arrivalSpeed="10.48" duration="98.00" routeLength="993.65" waitingTime="0.00" waitingCount="0" stopTime="0.00" timeLoss="8.08" rerouteNo="0" devices="tripinfo_e2s_74" vType="stdSKVehicle" speedFactor="0.96" vaporized=""/>
    <tripinfo id="n2w_57" depart="60.00" departLane="4fi_1" departPos="5.10" departSpeed="5.48" departDelay="0.00" arrival="173.00" arrivalLane="1o_0" arrivalPos="488.65" arrivalSpeed="11.98" duration="113.00" routeLength="977.69" waitingTime="28.00" waitingCount="1" stopTime="0.00" timeLoss="39.05" rerouteNo="0" devices="tripinfo_n2w_57" vType="stdSKVehicle" speedFactor="1.14" vaporized=""/>
    <tripinfo id="n2s_35" depart="37.00" departLane="4fi_1" departPos="5.10" departSpeed="9.24" departDelay="0.00" arrival="174.00" arrivalLane="3o_0" arrivalPos="488.65" arrivalSpeed="10.43" duration="137.00" routeLength="995.39" waitingTime="42.00" waitingCount="1" stopTime="0.00" timeLoss="52.91" rerouteNo="0" devices="tripinfo_n2s_35" vType="stdSKVehicle" speedFactor="1.02" vaporized=""/>
    <tripinfo id="s2n_40" depart="42.00" departLane="3fi_0" departPos="5.10" departSpeed="2.01" departDelay="1.00" arrival="175.00" arrivalLane="4o_0" arrivalPos="488.65" arrivalSpeed="10.69" duration="133.00" routeLength="995.39" waitingTime="38.00" waitingCount="1" stopTime="0.00" timeLoss="50.40" rerouteNo="0" devices="tripinfo_s2n_40" vType="stdSKVehicle" speedFactor="1.03" vaporized=""/>
    <tripinfo id="n2s_46" depart="47.00" departLane="4fi_1" departPos="5.10" departSpeed="8.56" departDelay="0.00" arrival="177.00" arrivalLane="3o_0" arrivalPos="488.65" arrivalSpeed="10.85" duration="130.00" routeLength="995.39" waitingTime="33.00" waitingCount="1" stopTime="0.00" timeLoss="44.52" rerouteNo="0" devices="tripinfo_n2s_46" vType="stdSKVehicle" speedFactor="1.00" vaporized=""/>
    <tripinfo id="n2s_68" depart="71.00" departLane="4fi_1" departPos="5.10" departSpeed="6.06" departDelay="1.00" arrival="179.00" arrivalLane="3o_1" arrivalPos="488.65" arrivalSpeed="10.55" duration="108.00" routeLength="995.39" waitingTime="13.00" waitingCount="1" stopTime="0.00" timeLoss="25.82" rerouteNo="0" devices="tripinfo_n2s_68" vType="stdSKVehicle" speedFactor="1.04" vaporized=""/>
    <tripinfo id="n2s_63" depart="63.00" departLane="4fi_1" departPos="5.10" departSpeed="7.93" departDelay="0.00" arrival="179.00" arrivalLane="3o_0" arrivalPos="488.65" arrivalSpeed="10.73" duration="116.00" routeLength="995.39" waitingTime="16.00" waitingCount="1" stopTime="0.00" timeLoss="29.82" rerouteNo="0" devices="tripinfo_n2s_63" vType="stdSKVehicle" speedFactor="0.99" vaporized=""/>
    <tripinfo id="s2n_75" depart="73.00" departLane="3fi_1" departPos="5.10" departSpeed="5.59" departDelay="0.00" arrival="180.00" arrivalLane="4o_0" arrivalPos="488.65" arrivalSpeed="10.44" duration="107.00" routeLength="995.39" waitingTime="7.00" waitingCount="1" stopTime="0.00" timeLoss="19.98" rerouteNo="0" devices="tripinfo_s2n_75" vType="stdSKVehicle" speedFactor="0.98" vaporized=""/>
    <tripinfo id="s2n_81" depart="80.00" departLane="3fi_1" departPos="5.10" departSpeed="3.55" departDelay="1.00" arrival="181.00" arrivalLane="4o_2" arrivalPos="488.65" arrivalSpeed="10.78" duration="101.00" routeLength="995.39" waitingTime="2.00" waitingCount="1" stopTime="0.00" timeLoss="15.65" rerouteNo="0" devices="tripinfo_s2n_81" vType="stdSKVehicle" speedFactor="1.00" vaporized=""/>
    <tripinfo id="s2n_25" depart="23.00" departLane="3fi_1" departPos="5.10" departSpeed="0.81" departDelay="0.00" arrival="182.00" arrivalLane="4o_0" arrivalPos="488.65" arrivalSpeed="9.09" duration="159.00" routeLength="995.39" waitingTime="47.00" waitingCount="1" stopTime="0.00" timeLoss="60.88" rerouteNo="0" devices="tripinfo_s2n_25" vType="stdSKVehicle" speedFactor="0.87" vaporized=""/>
    <tripinfo id="s2n_86" depart="86.00" departLane="3fi_0" departPos="5.10" departSpeed="5.67" departDelay="0.00" arrival="183.00" arrivalLane="4o_1" arrivalPos="488.65" arrivalSpeed="10.91" duration="97.00" routeLength="995.39" waitingTime="0.00" waitingCount="0" stopTime="0.00" timeLoss="11.68" rerouteNo="0" devices="tripinfo_s2n_86" vType="stdSKVehicle" speedFactor="1.00" vaporized=""/>
    <tripinfo id="s2n_38" depart="39.00" departLane="3fi_0" departPos="5.10" departSpeed="5.41" departDelay="0.00" arrival="183.00" arrivalLane="4o_0" arrivalPos="488.65" arrivalSpeed="11.55" duration="144.00" routeLength="995.39" waitingTime="45.00" waitingCount="1" stopTime="0.00" timeLoss="66.88" rerouteNo="0" devices="tripinfo_s2n_38" vType="stdSKVehicle" speedFactor="1.10" vaporized=""/>
    <tripinfo id="n2s_47" depart="48.00" departLane="4fi_0" departPos="5.10" departSpeed="5.81" departDelay="0.00" arrival="185.00" arrivalLane="3o_0" arrivalPos="488.65" arrivalSpeed="8.80" duration="137.00" routeLength="995.39" waitingTime="29.00" waitingCount="1" stopTime="0.00" timeLoss="41.91" rerouteNo="0" devices="tripinfo_n2s_47" vType="stdSKVehicle" speedFactor="0.90" vaporized=""/>
    <tripinfo id="s2n_62" depart="62.00" departLane="3fi_0" departPos="5.10" departSpeed="3.69" departDelay="0.00" arrival="186.00" arrivalLane="4o_0" arrivalPos="488.65" arrivalSpeed="10.75" duration="124.00" routeLength="995.39" waitingTime="19.00" waitingCount="1" stopTime="0.00" timeLoss="39.35" rerouteNo="0" devices="tripinfo_s2n_62" vType="stdSKVehicle" speedFactor="1.02" vaporized=""/>
    <tripinfo id="s2n_83" depart="82.00" departLane="3fi_1" departPos="5.10" departSpeed="1.57" departDelay="0.00" arrival="187.00" arrivalLane="4o_1" arrivalPos="488.65" arrivalSpeed="10.18" duration="105.00" routeLength="995.39" waitingTime="0.00" waitingCount="0" stopTime="0.00" timeLoss="16.15" rerouteNo="0" devices="tripinfo_s2n_83" vType="stdSKVehicle" speedFactor="0.97" vaporized=""/>
    <tripinfo id="n2s_64" depart="64.00" departLane="4fi_1" departPos="5.10" departSpeed="6.90" departDelay="0.00" arrival="187.00" arrivalLane="3o_0" arrivalPos="488.65" arrivalSpeed="10.14" duration="123.00" routeLength="995.39" waitingTime="19.00" waitingCount="1" stopTime="0.00" timeLoss="31.60" rerouteNo="0" devices="tripinfo_n2s_64" vType="stdSKVehicle" speedFactor="0.94" vaporized=""/>
    <tripinfo id="s2n_82" depart="80.00" departLane="3fi_0" departPos="5.10" departSpeed="6.90" departDelay="0.00" arrival="187.00" arrivalLane="4o_0" arrivalPos="488.65" arrivalSpeed="11.09" duration="107.00" routeLength="995.39" waitingTime="3.00" waitingCount="1" stopTime="0.00" timeLoss="23.21" rerouteNo="0" devices="tripinfo_s2n_82" vType="stdSKVehicle" speedFactor="1.02" vaporized=""/>
    <tripinfo id="s2w_79" depart="78.00" departLane="3fi_0" departPos="5.10" departSpeed="5.88" departDelay="0.00" arrival="188.00" arrivalLane="1o_0" arrivalPos="488.65" arrivalSpeed="10.89" duration="110.00" routeLength="993.65" waitingTime="19.00" waitingCount="1" stopTime="0.00" timeLoss="31.16" rerouteNo="0" devices="tripinfo_s2w_79" vType="stdSKVehicle" speedFactor="1.09" vaporized=""/>
    <tripinfo id="n2s_66" depart="69.00" departLane="4fi_0" departPos="5.10" departSpeed="2.39" departDelay="0.00" arrival="188.00" arrivalLane="3o_1" arrivalPos="488.65" arrivalSpeed="9.30" duration="119.00" routeLength="995.39" waitingTime="11.00" waitingCount="1" stopTime="0.00" timeLoss="24.98" rerouteNo="0" devices="tripinfo_n2s_66" vType="stdSKVehicle" speedFactor="0.91" vaporized=""/>