<?xml version="1.0" encoding="UTF-8"?>

<!-- generated on 03/23/19 17:00:49 by Eclipse SUMO GUI Version 1.1.0
<configuration xmlns:xsi="http://www.w3.org/2001/XMLSchema-instance" xsi:noNamespaceSchemaLocation="http://sumo.dlr.de/xsd/sumoConfiguration.xsd">

    <input>
        <net-file value="data/net.net.xml"/>
        <route-files value="data/net.rou.xml"/>
    </input>

    <output>
        <tripinfo-output value="tripinfo.xml"/>
    </output>

    <time>
        <begin value="0"/>
    </time>

    <report>
        <verbose value="true"/>
        <no-step-log value="true"/>
    </report>

    <traci_server>
        <remote-port value="61785"/>
    </traci_server>

</configuration>
-->

<tripinfos xmlns:xsi="http://www.w3.org/2001/XMLSchema-instance" xsi:noNamespaceSchemaLocation="http://sumo.dlr.de/xsd/tripinfo_file.xsd">
    <tripinfo id="w2n_3" depart="0.00" departLane="1fi_0" departPos="5.10" departSpeed="2.98" departDelay="0.00" arrival="85.00" arrivalLane="4o_0" arrivalPos="488.65" arrivalSpeed="11.38" duration="85.00" routeLength="993.65" waitingTime="0.00" waitingCount="0" stopTime="0.00" timeLoss="5.94" rerouteNo="0" devices="tripinfo_w2n_3" vType="stdSKVehicle" speedFactor="1.08" vaporized=""/>
    <tripinfo id="e2s_6" depart="3.00" departLane="2fi_0" departPos="5.10" departSpeed="2.75" departDelay="0.00" arrival="91.00" arrivalLane="3o_0" arrivalPos="488.65" arrivalSpeed="10.84" duration="88.00" routeLength="993.65" waitingTime="0.00" waitingCount="0" stopTime="0.00" timeLoss="6.32" rerouteNo="0" devices="tripinfo_e2s_6" vType="stdSKVehicle" speedFactor="1.05" vaporized=""/>
    <tripinfo id="s2n_13" depart="8.00" departLane="3fi_1" departPos="5.10" departSpeed="7.80" departDelay="0.00" arrival="98.00" arrivalLane="4o_0" arrivalPos="488.65" arrivalSpeed="12.17" duration="90.00" routeLength="995.39" waitingTime="5.00" waitingCount="1" stopTime="0.00" timeLoss="14.00" rerouteNo="0" devices="tripinfo_s2n_13" vType="stdSKVehicle" speedFactor="1.12" vaporized=""/>
    <tripinfo id="n2s_33" depart="17.00" departLane="4fi_1" departPos="5.10" departSpeed="12.89" departDelay="0.00" arrival="100.00" arrivalLane="3o_1" arrivalPos="488.65" arrivalSpeed="12.86" duration="83.00" routeLength="995.39" waitingTime="0.00" waitingCount="0" stopTime="0.00" timeLoss="10.46" rerouteNo="0" devices="tripinfo_n2s_33" vType="stdSKVehicle" speedFactor="1.17" vaporized=""/>
    <tripinfo id="n2w_0" depart="0.00" departLane="4fi_0" departPos="5.10" departSpeed="8.39" departDelay="0.00" arrival="100.00" arrivalLane="1o_0" arrivalPos="488.65" arrivalSpeed="11.16" duration="100.00" routeLength="977.69" waitingTime="11.00" waitingCount="1" stopTime="0.00" timeLoss="20.40" rerouteNo="0" devices="tripinfo_n2w_0" vType="stdSKVehicle" speedFactor="1.06" vaporized=""/>
    <tripinfo id="n2s_4" depart="1.00" departLane="4fi_1" departPos="5.10" departSpeed="5.18" departDelay="0.00" arrival="102.00" arrivalLane="3o_0" arrivalPos="488.65" arrivalSpeed="10.53" duration="101.00" routeLength="995.39" waitingTime="9.00" waitingCount="1" stopTime="0.00" timeLoss="17.81" rerouteNo="0" devices="tripinfo_n2s_4" vType="stdSKVehicle" speedFactor="1.03" vaporized=""/>
    <tripinfo id="s2n_2" depart="0.00" departLane="3fi_1" departPos="5.10" departSpeed="0.49" departDelay="0.00" arrival="103.00" arrivalLane="4o_0" arrivalPos="488.65" arrivalSpeed="10.32" duration="103.00" routeLength="995.39" waitingTime="6.00" waitingCount="1" stopTime="0.00" timeLoss="18.68" rerouteNo="0" devices="tripinfo_s2n_2" vType="stdSKVehicle" speedFactor="1.01" vaporized=""/>
    <tripinfo id="n2s_18" depart="11.00" departLane="4fi_1" departPos="5.10" departSpeed="5.07" departDelay="1.00" arrival="109.00" arrivalLane="3o_0" arrivalPos="488.65" arrivalSpeed="9.32" duration="98.00" routeLength="995.39" waitingTime="0.00" waitingCount="0" stopTime="0.00" timeLoss="6.48" rerouteNo="0" devices="tripinfo_n2s_18" vType="stdSKVehicle" speedFactor="0.94" vaporized=""/>
    <tripinfo id="s2n_44" depart="23.00" departLane="3fi_0" departPos="5.10" departSpeed="10.99" departDelay="0.00" arrival="110.00" arrivalLane="4o_0" arrivalPos="488.65" arrivalSpeed="11.34" duration="87.00" routeLength="995.39" waitingTime="0.00" waitingCount="0" stopTime="0.00" timeLoss="4.87" rerouteNo="0" devices="tripinfo_s2n_44" vType="stdSKVehicle" speedFactor="1.04" vaporized=""/>
    <tripinfo id="n2s_38" depart="21.00" departLane="4fi_1" departPos="5.10" departSpeed="3.33" departDelay="0.00" arrival="110.00" arrivalLane="3o_1" arrivalPos="488.65" arrivalSpeed="11.29" duration="89.00" routeLength="995.39" waitingTime="0.00" waitingCount="0" stopTime="0.00" timeLoss="10.91" rerouteNo="0" devices="tripinfo_n2s_38" vType="stdSKVehicle" speedFactor="1.10" vaporized=""/>
    <tripinfo id="n2s_34" depart="19.00" departLane="4fi_1" departPos="5.10" departSpeed="2.57" departDelay="0.00" arrival="111.00" arrivalLane="3o_1" arrivalPos="488.65" arrivalSpeed="10.12" duration="92.00" routeLength="995.39" waitingTime="0.00" waitingCount="0" stopTime="0.00" timeLoss="6.56" rerouteNo="0" devices="tripinfo_n2s_34" vType="stdSKVehicle" speedFactor="0.99" vaporized=""/>
    <tripinfo id="n2s_9" depart="5.00" departLane="4fi_0" departPos="5.10" departSpeed="5.68" departDelay="0.00" arrival="114.00" arrivalLane="3o_0" arrivalPos="488.65" arrivalSpeed="8.59" duration="109.00" routeLength="995.39" waitingTime="0.00" waitingCount="0" stopTime="0.00" timeLoss="9.64" rerouteNo="0" devices="tripinfo_n2s_9" vType="stdSKVehicle" speedFactor="0.86" vaporized=""/>
    <tripinfo id="s2w_10" depart="5.00" departLane="3fi_1" departPos="5.10" departSpeed="11.33" departDelay="0.00" arrival="114.00" arrivalLane="1o_0" arrivalPos="488.65" arrivalSpeed="11.14" duration="109.00" routeLength="993.65" waitingTime="21.00" waitingCount="1" stopTime="0.00" timeLoss="30.97" rerouteNo="0" devices="tripinfo_s2w_10" vType="stdSKVehicle" speedFactor="1.09" vaporized=""/>
    <tripinfo id="s2n_29" depart="15.00" departLane="3fi_1" departPos="5.10" departSpeed="1.90" departDelay="0.00" arrival="115.00" arrivalLane="4o_0" arrivalPos="488.65" arrivalSpeed="9.74" duration="100.00" routeLength="995.39" waitingTime="0.00" waitingCount="0" stopTime="0.00" timeLoss="8.25" rerouteNo="0" devices="tripinfo_s2n_29" vType="stdSKVehicle" speedFactor="0.93" vaporized=""/>
    <tripinfo id="n2s_23" depart="13.00" departLane="4fi_1" departPos="5.10" departSpeed="3.90" departDelay="0.00" arrival="116.00" arrivalLane="3o_0" arrivalPos="488.65" arrivalSpeed="9.71" duration="103.00" routeLength="995.39" waitingTime="0.00" waitingCount="0" stopTime="0.00" timeLoss="7.16" rerouteNo="0" devices="tripinfo_n2s_23" vType="stdSKVehicle" speedFactor="0.89" vaporized=""/>
    <tripinfo id="n2e_21" depart="11.00" departLane="4fi_0" departPos="5.10" departSpeed="3.13" departDelay="0.00" arrival="120.00" arrivalLane="2o_0" arrivalPos="488.65" arrivalSpeed="9.96" duration="109.00" routeLength="993.65" waitingTime="8.00" waitingCount="1" stopTime="0.00" timeLoss="24.54" rerouteNo="0" devices="tripinfo_n2e_21" vType="stdSKVehicle" speedFactor="1.01" vaporized=""/>
    <tripinfo id="e2w_19" depart="10.00" departLane="2fi_1" departPos="5.10" departSpeed="7.07" departDelay="0.00" arrival="121.00" arrivalLane="1o_0" arrivalPos="488.65" arrivalSpeed="11.63" duration="111.00" routeLength="995.39" waitingTime="27.00" waitingCount="1" stopTime="0.00" timeLoss="37.03" rerouteNo="0" devices="tripinfo_e2w_19" vType="stdSKVehicle" speedFactor="1.16" vaporized=""/>
    <tripinfo id="n2e_15" depart="9.00" departLane="4fi_0" departPos="5.10" departSpeed="1.28" departDelay="0.00" arrival="122.00" arrivalLane="2o_0" arrivalPos="488.65" arrivalSpeed="9.31" duration="113.00" routeLength="993.65" waitingTime="9.00" waitingCount="1" stopTime="0.00" timeLoss="21.09" rerouteNo="0" devices="tripinfo_n2e_15" vType="stdSKVehicle" speedFactor="0.93" vaporized=""/>
    <tripinfo id="e2w_28" depart="15.00" departLane="2fi_1" departPos="5.10" departSpeed="5.89" departDelay="0.00" arrival="124.00" arrivalLane="1o_0" arrivalPos="488.65" arrivalSpeed="12.14" duration="109.00" routeLength="995.39" waitingTime="23.00" waitingCount="1" stopTime="0.00" timeLoss="33.83" rerouteNo="0" devices="tripinfo_e2w_28" vType="stdSKVehicle" speedFactor="1.13" vaporized=""/>
    <tripinfo id="w2e_11" depart="6.00" departLane="1fi_1" departPos="5.10" departSpeed="8.10" departDelay="0.00" arrival="126.00" arrivalLane="2o_0" arrivalPos="488.65" arrivalSpeed="10.32" duration="120.00" routeLength="995.39" waitingTime="24.00" waitingCount="1" stopTime="0.00" timeLoss="37.13" rerouteNo="0" devices="tripinfo_w2e_11" vType="stdSKVehicle" speedFactor="1.03" vaporized=""/>
    <tripinfo id="w2e_30" depart="17.00" departLane="1fi_1" departPos="5.10" departSpeed="3.10" departDelay="1.00" arrival="127.00" arrivalLane="2o_1" arrivalPos="488.65" arrivalSpeed="12.00" duration="110.00" routeLength="995.39" waitingTime="17.00" waitingCount="1" stopTime="0.00" timeLoss="37.07" rerouteNo="0" devices="tripinfo_w2e_30" vType="stdSKVehicle" speedFactor="1.18" vaporized=""/>
    <tripinfo id="e2n_20" depart="11.00" departLane="2fi_0" departPos="5.10" departSpeed="1.60" departDelay="1.00" arrival="127.00" arrivalLane="4o_0" arrivalPos="488.65" arrivalSpeed="10.29" duration="116.00" routeLength="977.69" waitingTime="17.00" waitingCount="1" stopTime="0.00" timeLoss="33.24" rerouteNo="0" devices="tripinfo_e2n_20" vType="stdSKVehicle" speedFactor="1.02" vaporized=""/>
    <tripinfo id="w2e_37" depart="20.00" departLane="1fi_0" departPos="5.10" departSpeed="0.10" departDelay="0.00" arrival="128.00" arrivalLane="2o_2" arrivalPos="488.65" arrivalSpeed="11.94" duration="108.00" routeLength="995.39" waitingTime="16.00" waitingCount="2" stopTime="0.00" timeLoss="35.78" rerouteNo="0" devices="tripinfo_w2e_37" vType="stdSKVehicle" speedFactor="1.18" vaporized=""/>
    <tripinfo id="w2s_8" depart="4.00" departLane="1fi_1" departPos="5.10" departSpeed="4.29" departDelay="0.00" arrival="129.00" arrivalLane="3o_0" arrivalPos="488.65" arrivalSpeed="9.18" duration="125.00" routeLength="977.69" waitingTime="24.00" waitingCount="1" stopTime="0.00" timeLoss="35.43" rerouteNo="0" devices="tripinfo_w2s_8" vType="stdSKVehicle" speedFactor="0.94" vaporized=""/>
    <tripinfo id="w2e_14" depart="8.00" departLane="1fi_1" departPos="5.10" departSpeed="5.43" departDelay="0.00" arrival="130.00" arrivalLane="2o_0" arrivalPos="488.65" arrivalSpeed="10.22" duration="122.00" routeLength="995.39" waitingTime="22.00" waitingCount="1" stopTime="0.00" timeLoss="35.87" rerouteNo="0" devices="tripinfo_w2e_14" vType="stdSKVehicle" speedFactor="0.99" vaporized=""/>
    <tripinfo id="e2w_35" depart="19.00" departLane="2fi_0" departPos="5.10" departSpeed="5.03" departDelay="0.00" arrival="131.00" arrivalLane="1o_1" arrivalPos="488.65" arrivalSpeed="10.61" duration="112.00" routeLength="995.39" waitingTime="13.00" waitingCount="1" stopTime="0.00" timeLoss="28.11" rerouteNo="0" devices="tripinfo_e2w_35" vType="stdSKVehicle" speedFactor="1.02" vaporized=""/>
    <tripinfo id="e2w_1" depart="0.00" departLane="2fi_1" departPos="5.10" departSpeed="5.12" departDelay="0.00" arrival="131.00" arrivalLane="1o_0" arrivalPos="488.65" arrivalSpeed="9.26" duration="131.00" routeLength="995.39" waitingTime="29.00" waitingCount="1" stopTime="0.00" timeLoss="39.93" rerouteNo="0" devices="tripinfo_e2w_1" vType="stdSKVehicle" speedFactor="0.94" vaporized=""/>
    <tripinfo id="e2w_53" depart="32.00" departLane="2fi_0" departPos="5.10" departSpeed="0.70" departDelay="1.00" arrival="132.00" arrivalLane="1o_2" arrivalPos="488.65" arrivalSpeed="11.85" duration="100.00" routeLength="995.39" waitingTime="4.00" waitingCount="1" stopTime="0.00" timeLoss="21.57" rerouteNo="0" devices="tripinfo_e2w_53" vType="stdSKVehicle" speedFactor="1.10" vaporized=""/>
    <tripinfo id="w2e_12" depart="8.00" departLane="1fi_0" departPos="5.10" departSpeed="1.22" departDelay="1.00" arrival="132.00" arrivalLane="2o_1" arrivalPos="488.65" arrivalSpeed="11.25" duration="124.00" routeLength="995.39" waitingTime="23.00" waitingCount="1" stopTime="0.00" timeLoss="42.63" rerouteNo="0" devices="tripinfo_w2e_12" vType="stdSKVehicle" speedFactor="1.05" vaporized=""/>
    <tripinfo id="w2e_22" depart="12.00" departLane="1fi_1" departPos="5.10" departSpeed="2.06" departDelay="0.00" arrival="133.00" arrivalLane="2o_0" arrivalPos="488.65" arrivalSpeed="10.32" duration="121.00" routeLength="995.39" waitingTime="20.00" waitingCount="1" stopTime="0.00" timeLoss="33.23" rerouteNo="0" devices="tripinfo_w2e_22" vType="stdSKVehicle" speedFactor="0.98" vaporized=""/>
    <tripinfo id="e2w_43" depart="23.00" departLane="2fi_0" departPos="5.10" departSpeed="4.99" departDelay="0.00" arrival="133.00" arrivalLane="1o_0" arrivalPos="488.65" arrivalSpeed="10.77" duration="110.00" routeLength="995.39" waitingTime="12.00" waitingCount="1" stopTime="0.00" timeLoss="27.42" rerouteNo="0" devices="tripinfo_e2w_43" vType="stdSKVehicle" speedFactor="1.04" vaporized=""/>
    <tripinfo id="w2s_42" depart="27.00" departLane="1fi_1" departPos="5.10" departSpeed="4.75" departDelay="5.00" arrival="134.00" arrivalLane="3o_1" arrivalPos="488.65" arrivalSpeed="10.85" duration="107.00" routeLength="977.69" waitingTime="15.00" waitingCount="1" stopTime="0.00" timeLoss="30.18" rerouteNo="0" devices="tripinfo_w2s_42" vType="stdSKVehicle" speedFactor="1.09" vaporized=""/>
    <tripinfo id="w2s_17" depart="10.00" departLane="1fi_0" departPos="5.10" departSpeed="2.07" departDelay="1.00" arrival="135.00" arrivalLane="3o_0" arrivalPos="488.65" arrivalSpeed="9.45" duration="125.00" routeLength="977.69" waitingTime="21.00" waitingCount="1" stopTime="0.00" timeLoss="35.92" rerouteNo="0" devices="tripinfo_w2s_17" vType="stdSKVehicle" speedFactor="0.94" vaporized=""/>
    <tripinfo id="w2e_40" depart="22.00" departLane="1fi_1" departPos="5.10" departSpeed="5.50" departDelay="1.00" arrival="136.00" arrivalLane="2o_1" arrivalPos="488.65" arrivalSpeed="10.89" duration="114.00" routeLength="995.39" waitingTime="13.00" waitingCount="1" stopTime="0.00" timeLoss="31.11" rerouteNo="0" devices="tripinfo_w2e_40" vType="stdSKVehicle" speedFactor="1.03" vaporized=""/>
    <tripinfo id="w2e_45" depart="24.00" departLane="1fi_1" departPos="5.10" departSpeed="9.25" departDelay="1.00" arrival="136.00" arrivalLane="2o_2" arrivalPos="488.65" arrivalSpeed="10.96" duration="112.00" routeLength="995.39" waitingTime="11.00" waitingCount="1" stopTime="0.00" timeLoss="33.59" rerouteNo="0" devices="tripinfo_w2e_45" vType="stdSKVehicle" speedFactor="1.09" vaporized=""/>
    <tripinfo id="e2n_25" depart="14.00" departLane="2fi_0" departPos="5.10" departSpeed="0.59" departDelay="0.00" arrival="137.00" arrivalLane="4o_0" arrivalPos="488.65" arrivalSpeed="9.07" duration="123.00" routeLength="977.69" waitingTime="13.00" waitingCount="1" stopTime="0.00" timeLoss="26.93" rerouteNo="0" devices="tripinfo_e2n_25" vType="stdSKVehicle" speedFactor="0.87" vaporized=""/>
    <tripinfo id="w2s_32" depart="19.00" departLane="1fi_1" departPos="5.10" departSpeed="4.72" departDelay="3.00" arrival="137.00" arrivalLane="3o_1" arrivalPos="488.65" arrivalSpeed="10.07" duration="118.00" routeLength="977.69" waitingTime="16.00" waitingCount="1" stopTime="0.00" timeLoss="34.03" rerouteNo="0" devices="tripinfo_w2s_32" vType="stdSKVehicle" speedFactor="1.01" vaporized=""/>
    <tripinfo id="e2w_54" depart="35.00" departLane="2fi_0" departPos="5.10" departSpeed="4.16" departDelay="2.00" arrival="137.00" arrivalLane="1o_0" arrivalPos="488.65" arrivalSpeed="11.13" duration="102.00" routeLength="995.39" waitingTime="2.00" waitingCount="1" stopTime="0.00" timeLoss="16.95" rerouteNo="0" devices="tripinfo_e2w_54" vType="stdSKVehicle" speedFactor="1.00" vaporized=""/>
    <tripinfo id="e2n_68" depart="43.00" departLane="2fi_0" departPos="5.10" departSpeed="6.71" departDelay="0.00" arrival="139.00" arrivalLane="4o_1" arrivalPos="488.65" arrivalSpeed="10.56" duration="96.00" routeLength="977.69" waitingTime="0.00" waitingCount="0" stopTime="0.00" timeLoss="14.68" rerouteNo="0" devices="tripinfo_e2n_68" vType="stdSKVehicle" speedFactor="1.04" vaporized=""/>
    <tripinfo id="w2e_5" depart="1.00" departLane="1fi_1" departPos="5.10" departSpeed="2.44" departDelay="0.00" arrival="140.00" arrivalLane="2o_0" arrivalPos="488.65" arrivalSpeed="8.50" duration="139.00" routeLength="995.39" waitingTime="23.00" waitingCount="1" stopTime="0.00" timeLoss="36.01" rerouteNo="0" devices="tripinfo_w2e_5" vType="stdSKVehicle" speedFactor="0.83" vaporized=""/>
    <tripinfo id="w2e_69" depart="44.00" departLane="1fi_1" departPos="5.10" departSpeed="0.00" departDelay="1.00" arrival="140.00" arrivalLane="2o_1" arrivalPos="488.65" arrivalSpeed="10.48" duration="96.00" routeLength="995.39" waitingTime="0.00" waitingCount="0" stopTime="0.00" timeLoss="12.68" rerouteNo="0" devices="tripinfo_w2e_69" vType="stdSKVehicle" speedFactor="1.02" vaporized=""/>
    <tripinfo id="w2s_79" depart="51.00" departLane="1fi_0" departPos="5.10" departSpeed="10.23" departDelay="1.00" arrival="140.00" arrivalLane="3o_0" arrivalPos="488.65" arrivalSpeed="10.87" duration="89.00" routeLength="977.69" waitingTime="0.00" waitingCount="0" stopTime="0.00" timeLoss="11.54" rerouteNo="0" devices="tripinfo_w2s_79" vType="stdSKVehicle" speedFactor="1.09" vaporized=""/>
    <tripinfo id="e2w_39" depart="21.00" departLane="2fi_0" departPos="5.10" departSpeed="4.03" departDelay="0.00" arrival="140.00" arrivalLane="1o_0" arrivalPos="488.65" arrivalSpeed="9.22" duration="119.00" routeLength="995.39" waitingTime="9.00" waitingCount="1" stopTime="0.00" timeLoss="24.38" rerouteNo="0" devices="tripinfo_e2w_39" vType="stdSKVehicle" speedFactor="0.90" vaporized=""/>
    <tripinfo id="w2e_26" depart="14.00" departLane="1fi_1" departPos="5.10" departSpeed="3.40" departDelay="0.00" arrival="142.00" arrivalLane="2o_0" arrivalPos="488.65" arrivalSpeed="9.58" duration="128.00" routeLength="995.39" waitingTime="19.00" waitingCount="1" stopTime="0.00" timeLoss="34.55" rerouteNo="0" devices="tripinfo_w2e_26" vType="stdSKVehicle" speedFactor="0.92" vaporized=""/>
    <tripinfo id="e2w_47" depart="25.00" departLane="2fi_0" departPos="5.10" departSpeed="8.32" departDelay="0.00" arrival="142.00" arrivalLane="1o_0" arrivalPos="488.65" arrivalSpeed="8.80" duration="117.00" routeLength="995.39" waitingTime="8.00" waitingCount="1" stopTime="0.00" timeLoss="22.47" rerouteNo="0" devices="tripinfo_e2w_47" vType="stdSKVehicle" speedFactor="0.90" vaporized=""/>
    <tripinfo id="w2e_78" depart="51.00" departLane="1fi_1" departPos="5.10" departSpeed="1.80" departDelay="1.00" arrival="144.00" arrivalLane="2o_0" arrivalPos="488.65" arrivalSpeed="10.95" duration="93.00" routeLength="995.39" waitingTime="0.00" waitingCount="0" stopTime="0.00" timeLoss="7.81" rerouteNo="0" devices="tripinfo_w2e_78" vType="stdSKVehicle" speedFactor="1.01" vaporized=""/>
    <tripinfo id="w2s_74" depart="47.00" departLane="1fi_1" departPos="5.10" departSpeed="4.87" departDelay="0.00" arrival="144.00" arrivalLane="3o_0" arrivalPos="488.65" arrivalSpeed="9.77" duration="97.00" routeLength="977.69" waitingTime="0.00" waitingCount="0" stopTime="0.00" timeLoss="9.12" rerouteNo="0" devices="tripinfo_w2s_74" vType="stdSKVehicle" speedFactor="0.96" vaporized=""/>
    <tripinfo id="w2s_80" depart="53.00" departLane="1fi_0" departPos="5.10" departSpeed="2.55" departDelay="2.00" arrival="144.00" arrivalLane="3o_1" arrivalPos="488.65" arrivalSpeed="10.78" duration="91.00" routeLength="977.69" waitingTime="0.00" waitingCount="0" stopTime="0.00" timeLoss="9.82" rerouteNo="0" devices="tripinfo_w2s_80" vType="stdSKVehicle" speedFactor="1.03" vaporized=""/>
    <tripinfo id="e2w_56" depart="37.00" departLane="2fi_1" departPos="5.10" departSpeed="0.54" departDelay="1.00" arrival="145.00" arrivalLane="1o_1" arrivalPos="488.65" arrivalSpeed="8.83" duration="108.00" routeLength="995.39" waitingTime="0.00" waitingCount="0" stopTime="0.00" timeLoss="13.24" rerouteNo="0" devices="tripinfo_e2w_56" vType="stdSKVehicle" speedFactor="0.90" vaporized=""/>
    <tripinfo id="e2w_48" depart="27.00" departLane="2fi_1" departPos="5.10" departSpeed="7.27" departDelay="0.00" arrival="145.00" arrivalLane="1o_0" arrivalPos="488.65" arrivalSpeed="9.74" duration="118.00" routeLength="995.39" waitingTime="6.00" waitingCount="1" stopTime="0.00" timeLoss="20.81" rerouteNo="0" devices="tripinfo_e2w_48" vType="stdSKVehicle" speedFactor="0.88" vaporized=""/>
    <tripinfo id="w2e_67" depart="42.00" departLane="1fi_1" departPos="5.10" departSpeed="1.46" departDelay="0.00" arrival="146.00" arrivalLane="2o_0" arrivalPos="488.65" arrivalSpeed="9.05" duration="104.00" routeLength="995.39" waitingTime="0.00" waitingCount="0" stopTime="0.00" timeLoss="10.89" rerouteNo="0" devices="tripinfo_w2e_67" vType="stdSKVehicle" speedFactor="0.91" vaporized=""/>
    <tripinfo id="e2w_66" depart="42.00" departLane="2fi_1" departPos="5.10" departSpeed="1.42" departDelay="0.00" arrival="147.00" arrivalLane="1o_2" arrivalPos="488.65" arrivalSpeed="9.31" duration="105.00" routeLength="995.39" waitingTime="0.00" waitingCount="0" stopTime="0.00" timeLoss="10.46" rerouteNo="0" devices="tripinfo_e2w_66" vType="stdSKVehicle" speedFactor="0.91" vaporized=""/>
    <tripinfo id="e2w_72" depart="46.00" departLane="2fi_1" departPos="5.10" departSpeed="0.47" departDelay="0.00" arrival="147.00" arrivalLane="1o_1" arrivalPos="488.65" arrivalSpeed="9.38" duration="101.00" routeLength="995.39" waitingTime="0.00" waitingCount="0" stopTime="0.00" timeLoss="10.34" rerouteNo="0" devices="tripinfo_e2w_72" vType="stdSKVehicle" speedFactor="0.94" vaporized=""/>
    <tripinfo id="e2n_86" depart="57.00" departLane="2fi_0" departPos="5.10" departSpeed="3.63" departDelay="0.00" arrival="147.00" arrivalLane="4o_0" arrivalPos="488.65" arrivalSpeed="10.59" duration="90.00" routeLength="977.69" waitingTime="0.00" waitingCount="0" stopTime="0.00" timeLoss="6.01" rerouteNo="0" devices="tripinfo_e2n_86" vType="stdSKVehicle" speedFactor="1.00" vaporized=""/>
    <tripinfo id="e2w_76" depart="48.00" departLane="2fi_0" departPos="5.10" departSpeed="5.05" departDelay="0.00" arrival="148.00" arrivalLane="1o_2" arrivalPos="488.65" arrivalSpeed="11.47" duration="100.00" routeLength="995.39" waitingTime="0.00" waitingCount="0" stopTime="0.00" timeLoss="17.50" rerouteNo="0" devices="tripinfo_e2w_76" vType="stdSKVehicle" speedFactor="1.03" vaporized=""/>
    <tripinfo id="e2w_81" depart="53.00" departLane="2fi_1" departPos="5.10" departSpeed="7.57" departDelay="0.00" arrival="149.00" arrivalLane="1o_1" arrivalPos="488.65" arrivalSpeed="10.07" duration="96.00" routeLength="995.39" waitingTime="0.00" waitingCount="0" stopTime="0.00" timeLoss="10.49" rerouteNo="0" devices="tripinfo_e2w_81" vType="stdSKVehicle" speedFactor="1.00" vaporized=""/>
    <tripinfo id="w2e_88" depart="58.00" departLane="1fi_0" departPos="5.10" departSpeed="7.05" departDelay="0.00" arrival="149.00" arrivalLane="2o_0" arrivalPos="488.65" arrivalSpeed="10.47" duration="91.00" routeLength="995.39" waitingTime="0.00" waitingCount="0" stopTime="0.00" timeLoss="5.82" rerouteNo="0" devices="tripinfo_w2e_88" vType="stdSKVehicle" speedFactor="1.01" vaporized=""/>
    <tripinfo id="e2w_49" depart="28.00" departLane="2fi_0" departPos="5.10" departSpeed="5.32" departDelay="0.00" arrival="149.00" arrivalLane="1o_0" arrivalPos="488.65" arrivalSpeed="8.99" duration="121.00" routeLength="995.39" waitingTime="6.00" waitingCount="1" stopTime="0.00" timeLoss="20.52" rerouteNo="0" devices="tripinfo_e2w_49" vType="stdSKVehicle" speedFactor="0.85" vaporized=""/>
    <tripinfo id="e2w_89" depart="61.00" departLane="2fi_1" departPos="5.10" departSpeed="6.55" departDelay="2.00" arrival="150.00" arrivalLane="1o_2" arrivalPos="488.65" arrivalSpeed="11.00" duration="89.00" routeLength="995.39" waitingTime="0.00" waitingCount="0" stopTime="0.00" timeLoss="5.55" rerouteNo="0" devices="tripinfo_e2w_89" vType="stdSKVehicle" speedFactor="1.02" vaporized=""/>
    <tripinfo id="e2w_87" depart="59.00" departLane="2fi_0" departPos="5.10" departSpeed="0.86" departDelay="1.00" arrival="151.00" arrivalLane="1o_1" arrivalPos="488.65" arrivalSpeed="11.29" duration="92.00" routeLength="995.39" waitingTime="0.00" waitingCount="0" stopTime="0.00" timeLoss="9.91" rerouteNo="0" devices="tripinfo_e2w_87" vType="stdSKVehicle" speedFactor="1.04" vaporized=""/>
    <tripinfo id="e2w_71" depart="45.00" departLane="2fi_0" departPos="5.10" departSpeed="8.16" departDelay="0.00" arrival="151.00" arrivalLane="1o_0" arrivalPos="488.65" arrivalSpeed="10.55" duration="106.00" routeLength="995.39" waitingTime="0.00" waitingCount="0" stopTime="0.00" timeLoss="17.87" rerouteNo="0" devices="tripinfo_e2w_71" vType="stdSKVehicle" speedFactor="0.97" vaporized=""/>
    <tripinfo id="w2e_83" depart="54.00" departLane="1fi_1" departPos="5.10" departSpeed="2.64" departDelay="0.00" arrival="152.00" arrivalLane="2o_0" arrivalPos="488.65" arrivalSpeed="10.07" duration="98.00" routeLength="995.39" waitingTime="0.00" waitingCount="0" stopTime="0.00" timeLoss="9.18" rerouteNo="0" devices="tripinfo_w2e_83" vType="stdSKVehicle" speedFactor="0.97" vaporized=""/>
    <tripinfo id="w2n_31" depart="17.00" departLane="1fi_0" departPos="5.10" departSpeed="0.58" departDelay="1.00" arrival="157.00" arrivalLane="4o_0" arrivalPos="488.65" arrivalSpeed="12.61" duration="140.00" routeLength="993.65" waitingTime="40.00" waitingCount="1" stopTime="0.00" timeLoss="66.35" rerouteNo="0" devices="tripinfo_w2n_31" vType="stdSKVehicle" speedFactor="1.15" vaporized=""/>
    <tripinfo id="e2s_36" depart="19.00" departLane="2fi_1" departPos="5.10" departSpeed="3.33" departDelay="0.00" arrival="161.00" arrivalLane="3o_0" arrivalPos="488.65" arrivalSpeed="9.89" duration="142.00" routeLength="993.65" waitingTime="42.00" waitingCount="1" stopTime="0.00" timeLoss="54.56" rerouteNo="0" devices="tripinfo_e2s_36" vType="stdSKVehicle" speedFactor="0.97" vaporized=""/>
    <tripinfo id="e2s_84" depart="55.00" departLane="2fi_0" departPos="5.10" departSpeed="11.90" departDelay="0.00" arrival="161.00" arrivalLane="3o_1" arrivalPos="488.65" arrivalSpeed="12.42" duration="106.00" routeLength="993.65" waitingTime="18.00" waitingCount="1" stopTime="0.00" timeLoss="32.01" rerouteNo="0" devices="tripinfo_e2s_84" vType="stdSKVehicle" speedFactor="1.15" vaporized=""/>
    <tripinfo id="w2n_27" depart="15.00" departLane="1fi_0" departPos="5.10" departSpeed="0.28" departDelay="1.00" arrival="162.00" arrivalLane="4o_1" arrivalPos="488.65" arrivalSpeed="10.54" duration="147.00" routeLength="993.65" waitingTime="41.00" waitingCount="1" stopTime="0.00" timeLoss="57.24" rerouteNo="0" devices="tripinfo_w2n_27" vType="stdSKVehicle" speedFactor="0.95" vaporized=""/>
    <tripinfo id="w2n_7" depart="4.00" departLane="1fi_0" departPos="5.10" departSpeed="1.27" departDelay="0.00" arrival="164.00" arrivalLane="4o_0" arrivalPos="488.65" arrivalSpeed="9.40" duration="160.00" routeLength="993.65" waitingTime="48.00" waitingCount="1" stopTime="0.00" timeLoss="63.68" rerouteNo="0" devices="tripinfo_w2n_7" vType="stdSKVehicle" speedFactor="0.89" vaporized=""/>
    <tripinfo id="e2s_16" depart="9.00" departLane="2fi_0" departPos="5.10" departSpeed="1.38" departDelay="0.00" arrival="164.00" arrivalLane="3o_0" arrivalPos="488.65" arrivalSpeed="9.16" duration="155.00" routeLength="993.65" waitingTime="45.00" waitingCount="1" stopTime="0.00" timeLoss="58.14" rerouteNo="0" devices="tripinfo_e2s_16" vType="stdSKVehicle" speedFactor="0.88" vaporized=""/>
    <tripinfo id="n2w_51" depart="30.00" departLane="4fi_1" departPos="5.10" departSpeed="11.71" departDelay="0.00" arrival="164.00" arrivalLane="1o_0" arrivalPos="488.65" arrivalSpeed="12.45" duration="134.00" routeLength="977.69" waitingTime="50.00" waitingCount="1" stopTime="0.00" timeLoss="62.50" rerouteNo="0" devices="tripinfo_n2w_51" vType="stdSKVehicle" speedFactor="1.17" vaporized=""/>
    <tripinfo id="w2n_41" depart="24.00" departLane="1fi_0" departPos="5.10" departSpeed="0.42" departDelay="2.00" arrival="166.00" arrivalLane="4o_0" arrivalPos="488.65" arrivalSpeed="10.02" duration="142.00" routeLength="993.65" waitingTime="36.00" waitingCount="1" stopTime="0.00" timeLoss="52.86" rerouteNo="0" devices="tripinfo_w2n_41" vType="stdSKVehicle" speedFactor="0.96" vaporized=""/>
    <tripinfo id="e2s_59" depart="37.00" departLane="2fi_0" departPos="5.10" departSpeed="3.34" departDelay="0.00" arrival="166.00" arrivalLane="3o_1" arrivalPos="488.65" arrivalSpeed="9.91" duration="129.00" routeLength="993.65" waitingTime="23.00" waitingCount="1" stopTime="0.00" timeLoss="41.45" rerouteNo="0" devices="tripinfo_e2s_59" vType="stdSKVehicle" speedFactor="0.97" vaporized=""/>
    <tripinfo id="s2n_57" depart="36.00" departLane="3fi_1" departPos="5.10" departSpeed="9.37" departDelay="0.00" arrival="168.00" arrivalLane="4o_1" arrivalPos="488.65" arrivalSpeed="11.66" duration="132.00" routeLength="995.39" waitingTime="44.00" waitingCount="1" stopTime="0.00" timeLoss="56.93" rerouteNo="0" devices="tripinfo_s2n_57" vType="stdSKVehicle" speedFactor="1.14" vaporized=""/>
    <tripinfo id="s2n_61" depart="40.00" departLane="3fi_1" departPos="5.10" departSpeed="11.84" departDelay="1.00" arrival="168.00" arrivalLane="4o_0" arrivalPos="488.65" arrivalSpeed="11.82" duration="128.00" routeLength="995.39" waitingTime="39.00" waitingCount="1" stopTime="0.00" timeLoss="51.38" rerouteNo="0" devices="tripinfo_s2n_61" vType="stdSKVehicle" speedFactor="1.12" vaporized=""/>