<?xml version="1.0" encoding="UTF-8"?>

<!-- generated on 03/23/19 17:04:25 by Eclipse SUMO GUI Version 1.1.0
<configuration xmlns:xsi="http://www.w3.org/2001/XMLSchema-instance" xsi:noNamespaceSchemaLocation="http://sumo.dlr.de/xsd/sumoConfiguration.xsd">

    <input>
        <net-file value="data/net.net.xml"/>
        <route-files value="data/net.rou.xml"/>
    </input>

    <output>
        <tripinfo-output value="tripinfo.xml"/>
    </output>

    <time>
        <begin value="0"/>
    </time>

    <report>
        <verbose value="true"/>
        <no-step-log value="true"/>
    </report>

    <traci_server>
        <remote-port value="61871"/>
    </traci_server>

</configuration>
-->

<tripinfos xmlns:xsi="http://www.w3.org/2001/XMLSchema-instance" xsi:noNamespaceSchemaLocation="http://sumo.dlr.de/xsd/tripinfo_file.xsd">
    <tripinfo id="w2n_3" depart="0.00" departLane="1fi_0" departPos="5.10" departSpeed="2.98" departDelay="0.00" arrival="89.00" arrivalLane="4o_0" arrivalPos="488.65" arrivalSpeed="11.23" duration="89.00" routeLength="993.65" waitingTime="1.00" waitingCount="1" stopTime="0.00" timeLoss="10.50" rerouteNo="0" devices="tripinfo_w2n_3" vType="stdSKVehicle" speedFactor="1.08" vaporized=""/>
    <tripinfo id="e2s_6" depart="3.00" departLane="2fi_0" departPos="5.10" departSpeed="2.75" departDelay="0.00" arrival="91.00" arrivalLane="3o_0" arrivalPos="488.65" arrivalSpeed="10.73" duration="88.00" routeLength="993.65" waitingTime="0.00" waitingCount="0" stopTime="0.00" timeLoss="6.75" rerouteNo="0" devices="tripinfo_e2s_6" vType="stdSKVehicle" speedFactor="1.05" vaporized=""/>
    <tripinfo id="s2n_13" depart="8.00" departLane="3fi_1" departPos="5.10" departSpeed="7.80" departDelay="0.00" arrival="97.00" arrivalLane="4o_0" arrivalPos="488.65" arrivalSpeed="12.20" duration="89.00" routeLength="995.39" waitingTime="4.00" waitingCount="1" stopTime="0.00" timeLoss="12.85" rerouteNo="0" devices="tripinfo_s2n_13" vType="stdSKVehicle" speedFactor="1.12" vaporized=""/>
    <tripinfo id="n2w_0" depart="0.00" departLane="4fi_0" departPos="5.10" departSpeed="8.39" departDelay="0.00" arrival="98.00" arrivalLane="1o_0" arrivalPos="488.65" arrivalSpeed="11.72" duration="98.00" routeLength="977.69" waitingTime="10.00" waitingCount="1" stopTime="0.00" timeLoss="18.60" rerouteNo="0" devices="tripinfo_n2w_0" vType="stdSKVehicle" speedFactor="1.06" vaporized=""/>
    <tripinfo id="n2s_4" depart="1.00" departLane="4fi_1" departPos="5.10" departSpeed="5.18" departDelay="0.00" arrival="101.00" arrivalLane="3o_0" arrivalPos="488.65" arrivalSpeed="10.62" duration="100.00" routeLength="995.39" waitingTime="7.00" waitingCount="1" stopTime="0.00" timeLoss="17.25" rerouteNo="0" devices="tripinfo_n2s_4" vType="stdSKVehicle" speedFactor="1.03" vaporized=""/>
    <tripinfo id="s2n_2" depart="0.00" departLane="3fi_1" departPos="5.10" departSpeed="0.49" departDelay="0.00" arrival="102.00" arrivalLane="4o_0" arrivalPos="488.65" arrivalSpeed="10.89" duration="102.00" routeLength="995.39" waitingTime="5.00" waitingCount="1" stopTime="0.00" timeLoss="17.57" rerouteNo="0" devices="tripinfo_s2n_2" vType="stdSKVehicle" speedFactor="1.01" vaporized=""/>
    <tripinfo id="n2s_33" depart="17.00" departLane="4fi_1" departPos="5.10" departSpeed="12.89" departDelay="0.00" arrival="103.00" arrivalLane="3o_1" arrivalPos="488.65" arrivalSpeed="12.37" duration="86.00" routeLength="995.39" waitingTime="0.00" waitingCount="0" stopTime="0.00" timeLoss="12.54" rerouteNo="0" devices="tripinfo_n2s_33" vType="stdSKVehicle" speedFactor="1.17" vaporized=""/>
    <tripinfo id="n2s_18" depart="11.00" departLane="4fi_1" departPos="5.10" departSpeed="5.07" departDelay="1.00" arrival="108.00" arrivalLane="3o_0" arrivalPos="488.65" arrivalSpeed="9.81" duration="97.00" routeLength="995.39" waitingTime="0.00" waitingCount="0" stopTime="0.00" timeLoss="6.11" rerouteNo="0" devices="tripinfo_n2s_18" vType="stdSKVehicle" speedFactor="0.94" vaporized=""/>
    <tripinfo id="n2w_51" depart="30.00" departLane="4fi_1" departPos="5.10" departSpeed="11.71" departDelay="0.00" arrival="109.00" arrivalLane="1o_0" arrivalPos="488.65" arrivalSpeed="12.07" duration="79.00" routeLength="977.69" waitingTime="0.00" waitingCount="0" stopTime="0.00" timeLoss="6.80" rerouteNo="0" devices="tripinfo_n2w_51" vType="stdSKVehicle" speedFactor="1.17" vaporized=""/>
    <tripinfo id="s2n_44" depart="23.00" departLane="3fi_0" departPos="5.10" departSpeed="10.99" departDelay="0.00" arrival="110.00" arrivalLane="4o_0" arrivalPos="488.65" arrivalSpeed="10.61" duration="87.00" routeLength="995.39" waitingTime="0.00" waitingCount="0" stopTime="0.00" timeLoss="5.41" rerouteNo="0" devices="tripinfo_s2n_44" vType="stdSKVehicle" speedFactor="1.04" vaporized=""/>
    <tripinfo id="n2s_38" depart="21.00" departLane="4fi_1" departPos="5.10" departSpeed="3.33" departDelay="0.00" arrival="111.00" arrivalLane="3o_2" arrivalPos="488.65" arrivalSpeed="11.96" duration="90.00" routeLength="995.39" waitingTime="0.00" waitingCount="0" stopTime="0.00" timeLoss="12.24" rerouteNo="0" devices="tripinfo_n2s_38" vType="stdSKVehicle" speedFactor="1.10" vaporized=""/>
    <tripinfo id="n2s_34" depart="19.00" departLane="4fi_1" departPos="5.10" departSpeed="2.57" departDelay="0.00" arrival="112.00" arrivalLane="3o_1" arrivalPos="488.65" arrivalSpeed="10.23" duration="93.00" routeLength="995.39" waitingTime="0.00" waitingCount="0" stopTime="0.00" timeLoss="7.06" rerouteNo="0" devices="tripinfo_n2s_34" vType="stdSKVehicle" speedFactor="0.99" vaporized=""/>
    <tripinfo id="n2s_9" depart="5.00" departLane="4fi_0" departPos="5.10" departSpeed="5.68" departDelay="0.00" arrival="113.00" arrivalLane="3o_0" arrivalPos="488.65" arrivalSpeed="8.42" duration="108.00" routeLength="995.39" waitingTime="0.00" waitingCount="0" stopTime="0.00" timeLoss="8.08" rerouteNo="0" devices="tripinfo_n2s_9" vType="stdSKVehicle" speedFactor="0.86" vaporized=""/>
    <tripinfo id="s2n_29" depart="15.00" departLane="3fi_1" departPos="5.10" departSpeed="1.90" departDelay="0.00" arrival="114.00" arrivalLane="4o_0" arrivalPos="488.65" arrivalSpeed="9.94" duration="99.00" routeLength="995.39" waitingTime="0.00" waitingCount="0" stopTime="0.00" timeLoss="7.33" rerouteNo="0" devices="tripinfo_s2n_29" vType="stdSKVehicle" speedFactor="0.93" vaporized=""/>
    <tripinfo id="s2n_57" depart="36.00" departLane="3fi_1" departPos="5.10" departSpeed="9.37" departDelay="0.00" arrival="115.00" arrivalLane="4o_1" arrivalPos="488.65" arrivalSpeed="12.06" duration="79.00" routeLength="995.39" waitingTime="0.00" waitingCount="0" stopTime="0.00" timeLoss="4.41" rerouteNo="0" devices="tripinfo_s2n_57" vType="stdSKVehicle" speedFactor="1.14" vaporized=""/>
    <tripinfo id="n2s_23" depart="13.00" departLane="4fi_1" departPos="5.10" departSpeed="3.90" departDelay="0.00" arrival="116.00" arrivalLane="3o_0" arrivalPos="488.65" arrivalSpeed="9.35" duration="103.00" routeLength="995.39" waitingTime="0.00" waitingCount="0" stopTime="0.00" timeLoss="6.92" rerouteNo="0" devices="tripinfo_n2s_23" vType="stdSKVehicle" speedFactor="0.89" vaporized=""/>
    <tripinfo id="n2s_46" depart="24.00" departLane="4fi_0" departPos="5.10" departSpeed="9.35" departDelay="0.00" arrival="116.00" arrivalLane="3o_1" arrivalPos="488.65" arrivalSpeed="10.39" duration="92.00" routeLength="995.39" waitingTime="0.00" waitingCount="0" stopTime="0.00" timeLoss="6.22" rerouteNo="0" devices="tripinfo_n2s_46" vType="stdSKVehicle" speedFactor="1.00" vaporized=""/>
    <tripinfo id="n2s_52" depart="31.00" departLane="4fi_1" departPos="5.10" departSpeed="6.31" departDelay="0.00" arrival="121.00" arrivalLane="3o_0" arrivalPos="488.65" arrivalSpeed="10.18" duration="90.00" routeLength="995.39" waitingTime="0.00" waitingCount="0" stopTime="0.00" timeLoss="5.60" rerouteNo="0" devices="tripinfo_n2s_52" vType="stdSKVehicle" speedFactor="1.02" vaporized=""/>
    <tripinfo id="s2w_10" depart="5.00" departLane="3fi_1" departPos="5.10" departSpeed="11.33" departDelay="0.00" arrival="125.00" arrivalLane="1o_0" arrivalPos="488.65" arrivalSpeed="11.10" duration="120.00" routeLength="993.65" waitingTime="31.00" waitingCount="1" stopTime="0.00" timeLoss="41.52" rerouteNo="0" devices="tripinfo_s2w_10" vType="stdSKVehicle" speedFactor="1.09" vaporized=""/>
    <tripinfo id="n2s_24" depart="15.00" departLane="4fi_0" departPos="5.10" departSpeed="6.79" departDelay="1.00" arrival="126.00" arrivalLane="3o_0" arrivalPos="488.65" arrivalSpeed="8.09" duration="111.00" routeLength="995.39" waitingTime="0.00" waitingCount="0" stopTime="0.00" timeLoss="7.69" rerouteNo="0" devices="tripinfo_n2s_24" vType="stdSKVehicle" speedFactor="0.83" vaporized=""/>
    <tripinfo id="n2e_21" depart="11.00" departLane="4fi_0" departPos="5.10" departSpeed="3.13" departDelay="0.00" arrival="130.00" arrivalLane="2o_0" arrivalPos="488.65" arrivalSpeed="10.28" duration="119.00" routeLength="993.65" waitingTime="17.00" waitingCount="1" stopTime="0.00" timeLoss="34.71" rerouteNo="0" devices="tripinfo_n2e_21" vType="stdSKVehicle" speedFactor="1.01" vaporized=""/>
    <tripinfo id="n2e_15" depart="9.00" departLane="4fi_0" departPos="5.10" departSpeed="1.28" departDelay="0.00" arrival="133.00" arrivalLane="2o_0" arrivalPos="488.65" arrivalSpeed="10.26" duration="124.00" routeLength="993.65" waitingTime="20.00" waitingCount="1" stopTime="0.00" timeLoss="31.92" rerouteNo="0" devices="tripinfo_n2e_15" vType="stdSKVehicle" speedFactor="0.93" vaporized=""/>
    <tripinfo id="s2w_63" depart="41.00" departLane="3fi_0" departPos="5.10" departSpeed="10.32" departDelay="1.00" arrival="135.00" arrivalLane="1o_0" arrivalPos="488.65" arrivalSpeed="10.08" duration="94.00" routeLength="993.65" waitingTime="0.00" waitingCount="0" stopTime="0.00" timeLoss="7.46" rerouteNo="0" devices="tripinfo_s2w_63" vType="stdSKVehicle" speedFactor="0.99" vaporized=""/>
    <tripinfo id="e2w_19" depart="10.00" departLane="2fi_1" departPos="5.10" departSpeed="7.07" departDelay="0.00" arrival="136.00" arrivalLane="1o_1" arrivalPos="488.65" arrivalSpeed="12.52" duration="126.00" routeLength="995.39" waitingTime="41.00" waitingCount="1" stopTime="0.00" timeLoss="52.12" rerouteNo="0" devices="tripinfo_e2w_19" vType="stdSKVehicle" speedFactor="1.16" vaporized=""/>
    <tripinfo id="e2w_28" depart="15.00" departLane="2fi_1" departPos="5.10" departSpeed="5.89" departDelay="0.00" arrival="138.00" arrivalLane="1o_0" arrivalPos="488.65" arrivalSpeed="11.89" duration="123.00" routeLength="995.39" waitingTime="37.00" waitingCount="1" stopTime="0.00" timeLoss="47.78" rerouteNo="0" devices="tripinfo_e2w_28" vType="stdSKVehicle" speedFactor="1.13" vaporized=""/>
    <tripinfo id="w2e_30" depart="17.00" departLane="1fi_1" departPos="5.10" departSpeed="3.10" departDelay="1.00" arrival="141.00" arrivalLane="2o_1" arrivalPos="488.65" arrivalSpeed="13.01" duration="124.00" routeLength="995.39" waitingTime="31.00" waitingCount="1" stopTime="0.00" timeLoss="50.85" rerouteNo="0" devices="tripinfo_w2e_30" vType="stdSKVehicle" speedFactor="1.18" vaporized=""/>
    <tripinfo id="w2e_11" depart="6.00" departLane="1fi_1" departPos="5.10" departSpeed="8.10" departDelay="0.00" arrival="141.00" arrivalLane="2o_0" arrivalPos="488.65" arrivalSpeed="10.33" duration="135.00" routeLength="995.39" waitingTime="36.00" waitingCount="1" stopTime="0.00" timeLoss="51.47" rerouteNo="0" devices="tripinfo_w2e_11" vType="stdSKVehicle" speedFactor="1.03" vaporized=""/>
    <tripinfo id="e2n_20" depart="11.00" departLane="2fi_0" departPos="5.10" departSpeed="1.60" departDelay="1.00" arrival="142.00" arrivalLane="4o_0" arrivalPos="488.65" arrivalSpeed="11.15" duration="131.00" routeLength="977.69" waitingTime="33.00" waitingCount="1" stopTime="0.00" timeLoss="48.08" rerouteNo="0" devices="tripinfo_e2n_20" vType="stdSKVehicle" speedFactor="1.02" vaporized=""/>
    <tripinfo id="w2s_8" depart="4.00" departLane="1fi_1" departPos="5.10" departSpeed="4.29" departDelay="0.00" arrival="143.00" arrivalLane="3o_0" arrivalPos="488.65" arrivalSpeed="9.91" duration="139.00" routeLength="977.69" waitingTime="39.00" waitingCount="1" stopTime="0.00" timeLoss="49.70" rerouteNo="0" devices="tripinfo_w2s_8" vType="stdSKVehicle" speedFactor="0.94" vaporized=""/>
    <tripinfo id="e2w_53" depart="32.00" departLane="2fi_0" departPos="5.10" departSpeed="0.70" departDelay="1.00" arrival="145.00" arrivalLane="1o_2" arrivalPos="488.65" arrivalSpeed="10.95" duration="113.00" routeLength="995.39" waitingTime="19.00" waitingCount="1" stopTime="0.00" timeLoss="35.29" rerouteNo="0" devices="tripinfo_e2w_53" vType="stdSKVehicle" speedFactor="1.10" vaporized=""/>
    <tripinfo id="w2e_14" depart="8.00" departLane="1fi_1" departPos="5.10" departSpeed="5.43" departDelay="0.00" arrival="145.00" arrivalLane="2o_0" arrivalPos="488.65" arrivalSpeed="10.58" duration="137.00" routeLength="995.39" waitingTime="35.00" waitingCount="1" stopTime="0.00" timeLoss="50.28" rerouteNo="0" devices="tripinfo_w2e_14" vType="stdSKVehicle" speedFactor="0.99" vaporized=""/>
    <tripinfo id="e2w_35" depart="19.00" departLane="2fi_0" departPos="5.10" departSpeed="5.03" departDelay="0.00" arrival="145.00" arrivalLane="1o_1" arrivalPos="488.65" arrivalSpeed="11.26" duration="126.00" routeLength="995.39" waitingTime="26.00" waitingCount="1" stopTime="0.00" timeLoss="41.99" rerouteNo="0" devices="tripinfo_e2w_35" vType="stdSKVehicle" speedFactor="1.02" vaporized=""/>
    <tripinfo id="e2w_1" depart="0.00" departLane="2fi_1" departPos="5.10" departSpeed="5.12" departDelay="0.00" arrival="145.00" arrivalLane="1o_0" arrivalPos="488.65" arrivalSpeed="10.42" duration="145.00" routeLength="995.39" waitingTime="44.00" waitingCount="1" stopTime="0.00" timeLoss="53.63" rerouteNo="0" devices="tripinfo_e2w_1" vType="stdSKVehicle" speedFactor="0.94" vaporized=""/>
    <tripinfo id="w2e_22" depart="12.00" departLane="1fi_1" departPos="5.10" departSpeed="2.06" departDelay="0.00" arrival="147.00" arrivalLane="2o_0" arrivalPos="488.65" arrivalSpeed="10.21" duration="135.00" routeLength="995.39" waitingTime="34.00" waitingCount="1" stopTime="0.00" timeLoss="47.55" rerouteNo="0" devices="tripinfo_w2e_22" vType="stdSKVehicle" speedFactor="0.98" vaporized=""/>
    <tripinfo id="e2w_43" depart="23.00" departLane="2fi_0" departPos="5.10" departSpeed="4.99" departDelay="0.00" arrival="147.00" arrivalLane="1o_0" arrivalPos="488.65" arrivalSpeed="10.83" duration="124.00" routeLength="995.39" waitingTime="25.00" waitingCount="1" stopTime="0.00" timeLoss="41.26" rerouteNo="0" devices="tripinfo_e2w_43" vType="stdSKVehicle" speedFactor="1.04" vaporized=""/>
    <tripinfo id="w2e_45" depart="24.00" departLane="1fi_1" departPos="5.10" departSpeed="9.25" departDelay="1.00" arrival="148.00" arrivalLane="2o_2" arrivalPos="488.65" arrivalSpeed="11.03" duration="124.00" routeLength="995.39" waitingTime="27.00" waitingCount="1" stopTime="0.00" timeLoss="45.55" rerouteNo="0" devices="tripinfo_w2e_45" vType="stdSKVehicle" speedFactor="1.09" vaporized=""/>
    <tripinfo id="w2e_40" depart="22.00" departLane="1fi_1" departPos="5.10" departSpeed="5.50" departDelay="1.00" arrival="149.00" arrivalLane="2o_1" arrivalPos="488.65" arrivalSpeed="11.32" duration="127.00" routeLength="995.39" waitingTime="27.00" waitingCount="1" stopTime="0.00" timeLoss="43.51" rerouteNo="0" devices="tripinfo_w2e_40" vType="stdSKVehicle" speedFactor="1.03" vaporized=""/>
    <tripinfo id="w2e_37" depart="20.00" departLane="1fi_0" departPos="5.10" departSpeed="0.10" departDelay="0.00" arrival="150.00" arrivalLane="2o_1" arrivalPos="488.65" arrivalSpeed="12.73" duration="130.00" routeLength="995.39" waitingTime="32.00" waitingCount="2" stopTime="0.00" timeLoss="57.64" rerouteNo="0" devices="tripinfo_w2e_37" vType="stdSKVehicle" speedFactor="1.18" vaporized=""/>
    <tripinfo id="w2s_17" depart="10.00" departLane="1fi_0" departPos="5.10" departSpeed="2.07" departDelay="1.00" arrival="150.00" arrivalLane="3o_0" arrivalPos="488.65" arrivalSpeed="9.20" duration="140.00" routeLength="977.69" waitingTime="35.00" waitingCount="1" stopTime="0.00" timeLoss="50.84" rerouteNo="0" devices="tripinfo_w2s_17" vType="stdSKVehicle" speedFactor="0.94" vaporized=""/>
    <tripinfo id="w2s_32" depart="19.00" departLane="1fi_1" departPos="5.10" departSpeed="4.72" departDelay="3.00" arrival="150.00" arrivalLane="3o_1" arrivalPos="488.65" arrivalSpeed="10.07" duration="131.00" routeLength="977.69" waitingTime="33.00" waitingCount="1" stopTime="0.00" timeLoss="47.73" rerouteNo="0" devices="tripinfo_w2s_32" vType="stdSKVehicle" speedFactor="1.01" vaporized=""/>
    <tripinfo id="e2n_25" depart="14.00" departLane="2fi_0" departPos="5.10" departSpeed="0.59" departDelay="0.00" arrival="151.00" arrivalLane="4o_0" arrivalPos="488.65" arrivalSpeed="9.61" duration="137.00" routeLength="977.69" waitingTime="27.00" waitingCount="1" stopTime="0.00" timeLoss="41.09" rerouteNo="0" devices="tripinfo_e2n_25" vType="stdSKVehicle" speedFactor="0.87" vaporized=""/>
    <tripinfo id="w2s_42" depart="27.00" departLane="1fi_1" departPos="5.10" departSpeed="4.75" departDelay="5.00" arrival="152.00" arrivalLane="3o_0" arrivalPos="488.65" arrivalSpeed="11.93" duration="125.00" routeLength="977.69" waitingTime="30.00" waitingCount="1" stopTime="0.00" timeLoss="47.83" rerouteNo="0" devices="tripinfo_w2s_42" vType="stdSKVehicle" speedFactor="1.09" vaporized=""/>
    <tripinfo id="e2w_54" depart="35.00" departLane="2fi_0" departPos="5.10" departSpeed="4.16" departDelay="2.00" arrival="152.00" arrivalLane="1o_0" arrivalPos="488.65" arrivalSpeed="10.97" duration="117.00" routeLength="995.39" waitingTime="17.00" waitingCount="1" stopTime="0.00" timeLoss="31.41" rerouteNo="0" devices="tripinfo_e2w_54" vType="stdSKVehicle" speedFactor="1.00" vaporized=""/>
    <tripinfo id="e2n_68" depart="43.00" departLane="2fi_0" departPos="5.10" departSpeed="6.71" departDelay="0.00" arrival="153.00" arrivalLane="4o_1" arrivalPos="488.65" arrivalSpeed="11.55" duration="110.00" routeLength="977.69" waitingTime="13.00" waitingCount="1" stopTime="0.00" timeLoss="29.08" rerouteNo="0" devices="tripinfo_e2n_68" vType="stdSKVehicle" speedFactor="1.04" vaporized=""/>
    <tripinfo id="w2e_5" depart="1.00" departLane="1fi_1" departPos="5.10" departSpeed="2.44" departDelay="0.00" arrival="154.00" arrivalLane="2o_0" arrivalPos="488.65" arrivalSpeed="9.00" duration="153.00" routeLength="995.39" waitingTime="38.00" waitingCount="1" stopTime="0.00" timeLoss="50.00" rerouteNo="0" devices="tripinfo_w2e_5" vType="stdSKVehicle" speedFactor="0.83" vaporized=""/>
    <tripinfo id="e2w_39" depart="21.00" departLane="2fi_0" departPos="5.10" departSpeed="4.03" departDelay="0.00" arrival="154.00" arrivalLane="1o_0" arrivalPos="488.65" arrivalSpeed="9.75" duration="133.00" routeLength="995.39" waitingTime="25.00" waitingCount="1" stopTime="0.00" timeLoss="37.80" rerouteNo="0" devices="tripinfo_e2w_39" vType="stdSKVehicle" speedFactor="0.90" vaporized=""/>
    <tripinfo id="w2e_26" depart="14.00" departLane="1fi_1" departPos="5.10" departSpeed="3.40" departDelay="0.00" arrival="155.00" arrivalLane="2o_1" arrivalPos="488.65" arrivalSpeed="10.07" duration="141.00" routeLength="995.39" waitingTime="34.00" waitingCount="1" stopTime="0.00" timeLoss="47.59" rerouteNo="0" devices="tripinfo_w2e_26" vType="stdSKVehicle" speedFactor="0.92" vaporized=""/>
    <tripinfo id="w2s_79" depart="50.00" departLane="1fi_1" departPos="5.10" departSpeed="4.63" departDelay="0.00" arrival="155.00" arrivalLane="3o_0" arrivalPos="488.65" arrivalSpeed="10.82" duration="105.00" routeLength="977.69" waitingTime="10.00" waitingCount="1" stopTime="0.00" timeLoss="27.35" rerouteNo="0" devices="tripinfo_w2s_79" vType="stdSKVehicle" speedFactor="1.09" vaporized=""/>
    <tripinfo id="w2e_69" depart="44.00" departLane="1fi_1" departPos="5.10" departSpeed="0.00" departDelay="1.00" arrival="156.00" arrivalLane="2o_2" arrivalPos="488.65" arrivalSpeed="11.07" duration="112.00" routeLength="995.39" waitingTime="6.00" waitingCount="1" stopTime="0.00" timeLoss="28.38" rerouteNo="0" devices="tripinfo_w2e_69" vType="stdSKVehicle" speedFactor="1.02" vaporized=""/>
    <tripinfo id="w2e_12" depart="8.00" departLane="1fi_0" departPos="5.10" departSpeed="1.22" departDelay="1.00" arrival="156.00" arrivalLane="2o_0" arrivalPos="488.65" arrivalSpeed="10.80" duration="148.00" routeLength="995.39" waitingTime="36.00" waitingCount="1" stopTime="0.00" timeLoss="65.89" rerouteNo="0" devices="tripinfo_w2e_12" vType="stdSKVehicle" speedFactor="1.05" vaporized=""/>
    <tripinfo id="e2w_47" depart="25.00" departLane="2fi_0" departPos="5.10" departSpeed="8.32" departDelay="0.00" arrival="156.00" arrivalLane="1o_0" arrivalPos="488.65" arrivalSpeed="9.66" duration="131.00" routeLength="995.39" waitingTime="21.00" waitingCount="1" stopTime="0.00" timeLoss="36.21" rerouteNo="0" devices="tripinfo_e2w_47" vType="stdSKVehicle" speedFactor="0.90" vaporized=""/>
    <tripinfo id="w2e_67" depart="42.00" departLane="1fi_1" departPos="5.10" departSpeed="1.46" departDelay="0.00" arrival="159.00" arrivalLane="2o_0" arrivalPos="488.65" arrivalSpeed="9.47" duration="117.00" routeLength="995.39" waitingTime="7.00" waitingCount="1" stopTime="0.00" timeLoss="23.64" rerouteNo="0" devices="tripinfo_w2e_67" vType="stdSKVehicle" speedFactor="0.91" vaporized=""/>
    <tripinfo id="e2w_56" depart="37.00" departLane="2fi_1" departPos="5.10" departSpeed="0.54" departDelay="1.00" arrival="159.00" arrivalLane="1o_1" arrivalPos="488.65" arrivalSpeed="8.85" duration="122.00" routeLength="995.39" waitingTime="12.00" waitingCount="1" stopTime="0.00" timeLoss="26.93" rerouteNo="0" devices="tripinfo_e2w_56" vType="stdSKVehicle" speedFactor="0.90" vaporized=""/>
    <tripinfo id="w2s_74" depart="47.00" departLane="1fi_1" departPos="5.10" departSpeed="9.49" departDelay="0.00" arrival="159.00" arrivalLane="3o_0" arrivalPos="488.65" arrivalSpeed="9.80" duration="112.00" routeLength="977.69" waitingTime="11.00" waitingCount="1" stopTime="0.00" timeLoss="23.73" rerouteNo="0" devices="tripinfo_w2s_74" vType="stdSKVehicle" speedFactor="0.96" vaporized=""/>
    <tripinfo id="w2s_80" depart="52.00" departLane="1fi_1" departPos="5.10" departSpeed="4.66" departDelay="1.00" arrival="159.00" arrivalLane="3o_1" arrivalPos="488.65" arrivalSpeed="11.00" duration="107.00" routeLength="977.69" waitingTime="8.00" waitingCount="1" stopTime="0.00" timeLoss="25.33" rerouteNo="0" devices="tripinfo_w2s_80" vType="stdSKVehicle" speedFactor="1.03" vaporized=""/>
    <tripinfo id="e2w_48" depart="27.00" departLane="2fi_1" departPos="5.10" departSpeed="7.27" departDelay="0.00" arrival="159.00" arrivalLane="1o_0" arrivalPos="488.65" arrivalSpeed="9.00" duration="132.00" routeLength="995.39" waitingTime="20.00" waitingCount="1" stopTime="0.00" timeLoss="34.81" rerouteNo="0" devices="tripinfo_e2w_48" vType="stdSKVehicle" speedFactor="0.88" vaporized=""/>
    <tripinfo id="e2w_81" depart="53.00" departLane="2fi_0" departPos="5.10" departSpeed="5.94" departDelay="0.00" arrival="160.00" arrivalLane="1o_2" arrivalPos="488.65" arrivalSpeed="10.98" duration="107.00" routeLength="995.39" waitingTime="6.00" waitingCount="1" stopTime="0.00" timeLoss="21.11" rerouteNo="0" devices="tripinfo_e2w_81" vType="stdSKVehicle" speedFactor="1.00" vaporized=""/>
    <tripinfo id="w2e_88" depart="58.00" departLane="1fi_0" departPos="5.10" departSpeed="7.66" departDelay="0.00" arrival="160.00" arrivalLane="2o_1" arrivalPos="488.65" arrivalSpeed="10.15" duration="102.00" routeLength="995.39" waitingTime="0.00" waitingCount="0" stopTime="0.00" timeLoss="17.38" rerouteNo="0" devices="tripinfo_w2e_88" vType="stdSKVehicle" speedFactor="1.01" vaporized=""/>
    <tripinfo id="e2n_86" depart="57.00" departLane="2fi_0" departPos="5.10" departSpeed="6.06" departDelay="0.00" arrival="160.00" arrivalLane="4o_0" arrivalPos="488.65" arrivalSpeed="10.98" duration="103.00" routeLength="977.69" waitingTime="5.00" waitingCount="1" stopTime="0.00" timeLoss="18.60" rerouteNo="0" devices="tripinfo_e2n_86" vType="stdSKVehicle" speedFactor="1.00" vaporized=""/>
    <tripinfo id="w2e_83" depart="54.00" departLane="1fi_0" departPos="5.10" departSpeed="9.76" departDelay="0.00" arrival="161.00" arrivalLane="2o_0" arrivalPos="488.65" arrivalSpeed="9.82" duration="107.00" routeLength="995.39" waitingTime="1.00" waitingCount="1" stopTime="0.00" timeLoss="18.61" rerouteNo="0" devices="tripinfo_w2e_83" vType="stdSKVehicle" speedFactor="0.97" vaporized=""/>
    <tripinfo id="e2w_66" depart="42.00" departLane="2fi_1" departPos="5.10" departSpeed="1.42" departDelay="0.00" arrival="161.00" arrivalLane="1o_1" arrivalPos="488.65" arrivalSpeed="9.16" duration="119.00" routeLength="995.39" waitingTime="10.00" waitingCount="1" stopTime="0.00" timeLoss="25.23" rerouteNo="0" devices="tripinfo_e2w_66" vType="stdSKVehicle" speedFactor="0.91" vaporized=""/>
    <tripinfo id="e2w_95" depart="63.00" departLane="2fi_0" departPos="5.10" departSpeed="3.47" departDelay="2.00" arrival="162.00" arrivalLane="1o_2" arrivalPos="488.65" arrivalSpeed="11.07" duration="99.00" routeLength="995.39" waitingTime="0.00" waitingCount="0" stopTime="0.00" timeLoss="17.70" rerouteNo="0" devices="tripinfo_e2w_95" vType="stdSKVehicle" speedFactor="1.06" vaporized=""/>
    <tripinfo id="w2e_78" depart="50.00" departLane="1fi_0" departPos="5.10" departSpeed="0.90" departDelay="0.00" arrival="162.00" arrivalLane="2o_1" arrivalPos="488.65" arrivalSpeed="11.05" duration="112.00" routeLength="995.39" waitingTime="0.00" waitingCount="0" stopTime="0.00" timeLoss="27.25" rerouteNo="0" devices="tripinfo_w2e_78" vType="stdSKVehicle" speedFactor="1.01" vaporized=""/>
    <tripinfo id="e2w_72" depart="46.00" departLane="2fi_1" departPos="5.10" departSpeed="0.47" departDelay="0.00" arrival="163.00" arrivalLane="1o_1" arrivalPos="488.65" arrivalSpeed="10.16" duration="117.00" routeLength="995.39" waitingTime="8.00" waitingCount="1" stopTime="0.00" timeLoss="26.30" rerouteNo="0" devices="tripinfo_e2w_72" vType="stdSKVehicle" speedFactor="0.94" vaporized=""/>
    <tripinfo id="e2n_96" depart="61.00" departLane="2fi_0" departPos="5.10" departSpeed="5.21" departDelay="0.00" arrival="163.00" arrivalLane="4o_0" arrivalPos="488.65" arrivalSpeed="11.16" duration="102.00" routeLength="977.69" waitingTime="1.00" waitingCount="1" stopTime="0.00" timeLoss="18.96" rerouteNo="0" devices="tripinfo_e2n_96" vType="stdSKVehicle" speedFactor="1.01" vaporized=""/>
    <tripinfo id="e2w_49" depart="28.00" departLane="2fi_0" departPos="5.10" departSpeed="5.32" departDelay="0.00" arrival="163.00" arrivalLane="1o_0" arrivalPos="488.65" arrivalSpeed="8.88" duration="135.00" routeLength="995.39" waitingTime="19.00" waitingCount="1" stopTime="0.00" timeLoss="34.52" rerouteNo="0" devices="tripinfo_e2w_49" vType="stdSKVehicle" speedFactor="0.85" vaporized=""/>
    <tripinfo id="e2w_87" depart="59.00" departLane="2fi_1" departPos="5.10" departSpeed="2.29" departDelay="1.00" arrival="164.00" arrivalLane="1o_2" arrivalPos="488.65" arrivalSpeed="10.92" duration="105.00" routeLength="995.39" waitingTime="2.00" waitingCount="1" stopTime="0.00" timeLoss="22.58" rerouteNo="0" devices="tripinfo_e2w_87" vType="stdSKVehicle" speedFactor="1.04" vaporized=""/>
    <tripinfo id="e2w_89" depart="59.00" departLane="2fi_0" departPos="5.10" departSpeed="5.53" departDelay="0.00" arrival="165.00" arrivalLane="1o_1" arrivalPos="488.65" arrivalSpeed="11.32" duration="106.00" routeLength="995.39" waitingTime="3.00" waitingCount="1" stopTime="0.00" timeLoss="22.47" rerouteNo="0" devices="tripinfo_e2w_89" vType="stdSKVehicle" speedFactor="1.02" vaporized=""/>
    <tripinfo id="e2w_71" depart="45.00" departLane="2fi_0" departPos="5.10" departSpeed="8.16" departDelay="0.00" arrival="165.00" arrivalLane="1o_0" arrivalPos="488.65" arrivalSpeed="10.67" duration="120.00" routeLength="995.39" waitingTime="11.00" waitingCount="1" stopTime="0.00" timeLoss="31.95" rerouteNo="0" devices="tripinfo_e2w_71" vType="stdSKVehicle" speedFactor="0.97" vaporized=""/>
    <tripinfo id="e2w_108" depart="70.00" departLane="2fi_0" departPos="5.10" departSpeed="10.26" departDelay="0.00" arrival="166.00" arrivalLane="1o_2" arrivalPos="488.65" arrivalSpeed="11.64" duration="96.00" routeLength="995.39" waitingTime="0.00" waitingCount="0" stopTime="0.00" timeLoss="15.14" rerouteNo="0" devices="tripinfo_e2w_108" vType="stdSKVehicle" speedFactor="1.06" vaporized=""/>
    <tripinfo id="w2e_134" depart="86.00" departLane="1fi_1" departPos="5.10" departSpeed="10.14" departDelay="0.00" arrival="166.00" arrivalLane="2o_2" arrivalPos="488.65" arrivalSpeed="13.41" duration="80.00" routeLength="995.39" waitingTime="0.00" waitingCount="0" stopTime="0.00" timeLoss="9.79" rerouteNo="0" devices="tripinfo_w2e_134" vType="stdSKVehicle" speedFactor="1.23" vaporized=""/>
    <tripinfo id="w2e_102" depart="64.00" departLane="1fi_0" departPos="5.10" departSpeed="8.42" departDelay="0.00" arrival="166.00" arrivalLane="2o_0" arrivalPos="488.65" arrivalSpeed="10.41" duration="102.00" routeLength="995.39" waitingTime="0.00" waitingCount="0" stopTime="0.00" timeLoss="13.60" rerouteNo="0" devices="tripinfo_w2e_102" vType="stdSKVehicle" speedFactor="0.97" vaporized=""/>
    <tripinfo id="w2s_93" depart="60.00" departLane="1fi_0" departPos="5.10" departSpeed="8.75" departDelay="0.00" arrival="166.00" arrivalLane="3o_0" arrivalPos="488.65" arrivalSpeed="8.97" duration="106.00" routeLength="977.69" waitingTime="1.00" waitingCount="1" stopTime="0.00" timeLoss="14.99" rerouteNo="0" devices="tripinfo_w2s_93" vType="stdSKVehicle" speedFactor="0.92" vaporized=""/>