<?xml version="1.0" encoding="UTF-8"?>

<!-- generated on 03/23/19 15:50:35 by Eclipse SUMO GUI Version 1.1.0
<configuration xmlns:xsi="http://www.w3.org/2001/XMLSchema-instance" xsi:noNamespaceSchemaLocation="http://sumo.dlr.de/xsd/sumoConfiguration.xsd">

    <input>
        <net-file value="data/net.net.xml"/>
        <route-files value="data/net.rou.xml"/>
    </input>

    <output>
        <tripinfo-output value="tripinfo.xml"/>
    </output>

    <time>
        <begin value="0"/>
    </time>

    <report>
        <verbose value="true"/>
        <no-step-log value="true"/>
    </report>

    <traci_server>
        <remote-port value="59343"/>
    </traci_server>

</configuration>
-->

<tripinfos xmlns:xsi="http://www.w3.org/2001/XMLSchema-instance" xsi:noNamespaceSchemaLocation="http://sumo.dlr.de/xsd/tripinfo_file.xsd">
    <tripinfo id="w2n_0" depart="0.00" departLane="1fi_0" departPos="5.10" departSpeed="8.39" departDelay="0.00" arrival="91.00" arrivalLane="4o_0" arrivalPos="488.65" arrivalSpeed="10.92" duration="91.00" routeLength="993.65" waitingTime="1.00" waitingCount="1" stopTime="0.00" timeLoss="10.40" rerouteNo="0" devices="tripinfo_w2n_0" vType="stdSKVehicle" speedFactor="1.06" vaporized=""/>
    <tripinfo id="s2n_19" depart="15.00" departLane="3fi_1" departPos="5.10" departSpeed="6.26" departDelay="0.00" arrival="94.00" arrivalLane="4o_0" arrivalPos="488.65" arrivalSpeed="12.73" duration="79.00" routeLength="995.39" waitingTime="0.00" waitingCount="0" stopTime="0.00" timeLoss="5.09" rerouteNo="0" devices="tripinfo_s2n_19" vType="stdSKVehicle" speedFactor="1.16" vaporized=""/>
    <tripinfo id="n2s_10" depart="10.00" departLane="4fi_1" departPos="5.10" departSpeed="0.34" departDelay="0.00" arrival="97.00" arrivalLane="3o_0" arrivalPos="488.65" arrivalSpeed="11.84" duration="87.00" routeLength="995.39" waitingTime="0.00" waitingCount="0" stopTime="0.00" timeLoss="8.54" rerouteNo="0" devices="tripinfo_n2s_10" vType="stdSKVehicle" speedFactor="1.09" vaporized=""/>
    <tripinfo id="s2n_6" depart="8.00" departLane="3fi_0" departPos="5.10" departSpeed="1.50" departDelay="0.00" arrival="99.00" arrivalLane="4o_0" arrivalPos="488.65" arrivalSpeed="11.39" duration="91.00" routeLength="995.39" waitingTime="0.00" waitingCount="0" stopTime="0.00" timeLoss="9.17" rerouteNo="0" devices="tripinfo_s2n_6" vType="stdSKVehicle" speedFactor="1.05" vaporized=""/>
    <tripinfo id="n2e_13" depart="11.00" departLane="4fi_0" departPos="5.10" departSpeed="8.47" departDelay="0.00" arrival="106.00" arrivalLane="2o_0" arrivalPos="488.65" arrivalSpeed="12.06" duration="95.00" routeLength="993.65" waitingTime="7.00" waitingCount="1" stopTime="0.00" timeLoss="18.88" rerouteNo="0" devices="tripinfo_n2e_13" vType="stdSKVehicle" speedFactor="1.12" vaporized=""/>
    <tripinfo id="s2w_3" depart="5.00" departLane="3fi_1" departPos="5.10" departSpeed="10.53" departDelay="0.00" arrival="108.00" arrivalLane="1o_0" arrivalPos="488.65" arrivalSpeed="11.31" duration="103.00" routeLength="993.65" waitingTime="13.00" waitingCount="1" stopTime="0.00" timeLoss="23.83" rerouteNo="0" devices="tripinfo_s2w_3" vType="stdSKVehicle" speedFactor="1.08" vaporized=""/>
    <tripinfo id="e2w_11" depart="10.00" departLane="2fi_1" departPos="5.10" departSpeed="6.23" departDelay="0.00" arrival="119.00" arrivalLane="1o_0" arrivalPos="488.65" arrivalSpeed="10.23" duration="109.00" routeLength="995.39" waitingTime="15.00" waitingCount="1" stopTime="0.00" timeLoss="26.15" rerouteNo="0" devices="tripinfo_e2w_11" vType="stdSKVehicle" speedFactor="1.03" vaporized=""/>
    <tripinfo id="w2e_4" depart="6.00" departLane="1fi_0" departPos="5.10" departSpeed="7.25" departDelay="0.00" arrival="119.00" arrivalLane="2o_1" arrivalPos="488.65" arrivalSpeed="10.49" duration="113.00" routeLength="995.39" waitingTime="19.00" waitingCount="1" stopTime="0.00" timeLoss="30.33" rerouteNo="0" devices="tripinfo_w2e_4" vType="stdSKVehicle" speedFactor="1.03" vaporized=""/>
    <tripinfo id="e2n_12" depart="10.00" departLane="2fi_0" departPos="5.10" departSpeed="0.78" departDelay="0.00" arrival="119.00" arrivalLane="4o_0" arrivalPos="488.65" arrivalSpeed="10.67" duration="109.00" routeLength="977.69" waitingTime="14.00" waitingCount="1" stopTime="0.00" timeLoss="28.37" rerouteNo="0" devices="tripinfo_e2n_12" vType="stdSKVehicle" speedFactor="1.05" vaporized=""/>
    <tripinfo id="e2w_37" depart="33.00" departLane="2fi_0" departPos="5.10" departSpeed="0.12" departDelay="0.00" arrival="120.00" arrivalLane="1o_1" arrivalPos="488.65" arrivalSpeed="13.06" duration="87.00" routeLength="995.39" waitingTime="0.00" waitingCount="0" stopTime="0.00" timeLoss="14.01" rerouteNo="0" devices="tripinfo_e2w_37" vType="stdSKVehicle" speedFactor="1.18" vaporized=""/>
    <tripinfo id="n2e_7" depart="9.00" departLane="4fi_0" departPos="5.10" departSpeed="7.99" departDelay="0.00" arrival="120.00" arrivalLane="2o_0" arrivalPos="488.65" arrivalSpeed="9.01" duration="111.00" routeLength="993.65" waitingTime="3.00" waitingCount="1" stopTime="0.00" timeLoss="14.34" rerouteNo="0" devices="tripinfo_n2e_7" vType="stdSKVehicle" speedFactor="0.89" vaporized=""/>
    <tripinfo id="w2e_31" depart="23.00" departLane="1fi_0" departPos="5.10" departSpeed="12.19" departDelay="0.00" arrival="121.00" arrivalLane="2o_2" arrivalPos="488.65" arrivalSpeed="12.39" duration="98.00" routeLength="995.39" waitingTime="7.00" waitingCount="1" stopTime="0.00" timeLoss="23.68" rerouteNo="0" devices="tripinfo_w2e_31" vType="stdSKVehicle" speedFactor="1.15" vaporized=""/>
    <tripinfo id="w2s_2" depart="4.00" departLane="1fi_1" departPos="5.10" departSpeed="5.23" departDelay="0.00" arrival="121.00" arrivalLane="3o_0" arrivalPos="488.65" arrivalSpeed="10.42" duration="117.00" routeLength="977.69" waitingTime="20.00" waitingCount="1" stopTime="0.00" timeLoss="33.71" rerouteNo="0" devices="tripinfo_w2s_2" vType="stdSKVehicle" speedFactor="1.01" vaporized=""/>
    <tripinfo id="w2s_28" depart="22.00" departLane="1fi_1" departPos="5.10" departSpeed="0.76" departDelay="0.00" arrival="123.00" arrivalLane="3o_1" arrivalPos="488.65" arrivalSpeed="11.37" duration="101.00" routeLength="977.69" waitingTime="8.00" waitingCount="1" stopTime="0.00" timeLoss="26.96" rerouteNo="0" devices="tripinfo_w2s_28" vType="stdSKVehicle" speedFactor="1.13" vaporized=""/>
    <tripinfo id="e2w_18" depart="15.00" departLane="2fi_0" departPos="5.10" departSpeed="9.56" departDelay="0.00" arrival="124.00" arrivalLane="1o_0" arrivalPos="488.65" arrivalSpeed="10.16" duration="109.00" routeLength="995.39" waitingTime="7.00" waitingCount="1" stopTime="0.00" timeLoss="17.67" rerouteNo="0" devices="tripinfo_e2w_18" vType="stdSKVehicle" speedFactor="0.94" vaporized=""/>
    <tripinfo id="w2e_1" depart="1.00" departLane="1fi_1" departPos="5.10" departSpeed="6.15" departDelay="0.00" arrival="124.00" arrivalLane="2o_0" arrivalPos="488.65" arrivalSpeed="10.01" duration="123.00" routeLength="995.39" waitingTime="22.00" waitingCount="1" stopTime="0.00" timeLoss="31.60" rerouteNo="0" devices="tripinfo_w2e_1" vType="stdSKVehicle" speedFactor="0.94" vaporized=""/>
    <tripinfo id="w2e_51" depart="43.00" departLane="1fi_1" departPos="5.10" departSpeed="4.72" departDelay="0.00" arrival="125.00" arrivalLane="2o_2" arrivalPos="488.65" arrivalSpeed="12.92" duration="82.00" routeLength="995.39" waitingTime="0.00" waitingCount="0" stopTime="0.00" timeLoss="8.84" rerouteNo="0" devices="tripinfo_w2e_51" vType="stdSKVehicle" speedFactor="1.17" vaporized=""/>
    <tripinfo id="e2w_34" depart="28.00" departLane="2fi_1" departPos="5.10" departSpeed="4.46" departDelay="0.00" arrival="125.00" arrivalLane="1o_1" arrivalPos="488.65" arrivalSpeed="9.99" duration="97.00" routeLength="995.39" waitingTime="0.00" waitingCount="0" stopTime="0.00" timeLoss="11.39" rerouteNo="0" devices="tripinfo_e2w_34" vType="stdSKVehicle" speedFactor="0.99" vaporized=""/>
    <tripinfo id="w2e_20" depart="16.00" departLane="1fi_1" departPos="5.10" departSpeed="1.78" departDelay="0.00" arrival="125.00" arrivalLane="2o_1" arrivalPos="488.65" arrivalSpeed="10.35" duration="109.00" routeLength="995.39" waitingTime="8.00" waitingCount="1" stopTime="0.00" timeLoss="24.79" rerouteNo="0" devices="tripinfo_w2e_20" vType="stdSKVehicle" speedFactor="1.02" vaporized=""/>
    <tripinfo id="e2w_27" depart="21.00" departLane="2fi_1" departPos="5.10" departSpeed="7.54" departDelay="0.00" arrival="126.00" arrivalLane="1o_0" arrivalPos="488.65" arrivalSpeed="9.43" duration="105.00" routeLength="995.39" waitingTime="1.00" waitingCount="1" stopTime="0.00" timeLoss="15.02" rerouteNo="0" devices="tripinfo_e2w_27" vType="stdSKVehicle" speedFactor="0.95" vaporized=""/>
    <tripinfo id="e2w_29" depart="23.00" departLane="2fi_0" departPos="5.10" departSpeed="0.41" departDelay="0.00" arrival="128.00" arrivalLane="1o_0" arrivalPos="488.65" arrivalSpeed="9.06" duration="105.00" routeLength="995.39" waitingTime="0.00" waitingCount="0" stopTime="0.00" timeLoss="13.55" rerouteNo="0" devices="tripinfo_e2w_29" vType="stdSKVehicle" speedFactor="0.93" vaporized=""/>
    <tripinfo id="w2e_14" depart="12.00" departLane="1fi_1" departPos="5.10" departSpeed="5.43" departDelay="0.00" arrival="128.00" arrivalLane="2o_0" arrivalPos="488.65" arrivalSpeed="10.87" duration="116.00" routeLength="995.39" waitingTime="10.00" waitingCount="1" stopTime="0.00" timeLoss="29.25" rerouteNo="0" devices="tripinfo_w2e_14" vType="stdSKVehicle" speedFactor="0.99" vaporized=""/>
    <tripinfo id="w2s_21" depart="16.00" departLane="1fi_0" departPos="5.10" departSpeed="1.45" departDelay="0.00" arrival="129.00" arrivalLane="3o_0" arrivalPos="488.65" arrivalSpeed="10.32" duration="113.00" routeLength="977.69" waitingTime="9.00" waitingCount="1" stopTime="0.00" timeLoss="29.33" rerouteNo="0" devices="tripinfo_w2s_21" vType="stdSKVehicle" speedFactor="1.01" vaporized=""/>
    <tripinfo id="e2w_36" depart="31.00" departLane="2fi_0" departPos="5.10" departSpeed="9.13" departDelay="0.00" arrival="130.00" arrivalLane="1o_1" arrivalPos="488.65" arrivalSpeed="10.61" duration="99.00" routeLength="995.39" waitingTime="0.00" waitingCount="0" stopTime="0.00" timeLoss="11.12" rerouteNo="0" devices="tripinfo_e2w_36" vType="stdSKVehicle" speedFactor="0.97" vaporized=""/>
    <tripinfo id="e2w_33" depart="26.00" departLane="2fi_0" departPos="5.10" departSpeed="0.40" departDelay="1.00" arrival="130.00" arrivalLane="1o_0" arrivalPos="488.65" arrivalSpeed="12.61" duration="104.00" routeLength="995.39" waitingTime="0.00" waitingCount="0" stopTime="0.00" timeLoss="30.77" rerouteNo="0" devices="tripinfo_e2w_33" vType="stdSKVehicle" speedFactor="1.17" vaporized=""/>
    <tripinfo id="w2s_9" depart="9.00" departLane="1fi_0" departPos="5.10" departSpeed="5.68" departDelay="0.00" arrival="132.00" arrivalLane="3o_0" arrivalPos="488.65" arrivalSpeed="8.27" duration="123.00" routeLength="977.69" waitingTime="11.00" waitingCount="1" stopTime="0.00" timeLoss="24.83" rerouteNo="0" devices="tripinfo_w2s_9" vType="stdSKVehicle" speedFactor="0.86" vaporized=""/>
    <tripinfo id="w2e_5" depart="7.00" departLane="1fi_1" departPos="5.10" departSpeed="0.30" departDelay="0.00" arrival="133.00" arrivalLane="2o_0" arrivalPos="488.65" arrivalSpeed="7.99" duration="126.00" routeLength="995.39" waitingTime="10.00" waitingCount="1" stopTime="0.00" timeLoss="22.81" rerouteNo="0" devices="tripinfo_w2e_5" vType="stdSKVehicle" speedFactor="0.83" vaporized=""/>
    <tripinfo id="w2e_25" depart="20.00" departLane="1fi_1" departPos="5.10" departSpeed="4.54" departDelay="0.00" arrival="136.00" arrivalLane="2o_0" arrivalPos="488.65" arrivalSpeed="9.19" duration="116.00" routeLength="995.39" waitingTime="5.00" waitingCount="1" stopTime="0.00" timeLoss="18.30" rerouteNo="0" devices="tripinfo_w2e_25" vType="stdSKVehicle" speedFactor="0.87" vaporized=""/>
    <tripinfo id="e2w_39" depart="36.00" departLane="2fi_1" departPos="5.10" departSpeed="2.91" departDelay="0.00" arrival="138.00" arrivalLane="1o_0" arrivalPos="488.65" arrivalSpeed="8.86" duration="102.00" routeLength="995.39" waitingTime="0.00" waitingCount="0" stopTime="0.00" timeLoss="7.18" rerouteNo="0" devices="tripinfo_e2w_39" vType="stdSKVehicle" speedFactor="0.90" vaporized=""/>
    <tripinfo id="e2s_42" depart="37.00" departLane="2fi_0" departPos="5.10" departSpeed="5.21" departDelay="0.00" arrival="140.00" arrivalLane="3o_0" arrivalPos="488.65" arrivalSpeed="11.15" duration="103.00" routeLength="993.65" waitingTime="11.00" waitingCount="1" stopTime="0.00" timeLoss="24.62" rerouteNo="0" devices="tripinfo_e2s_42" vType="stdSKVehicle" speedFactor="1.09" vaporized=""/>
    <tripinfo id="s2n_30" depart="23.00" departLane="3fi_0" departPos="5.10" departSpeed="0.69" departDelay="0.00" arrival="141.00" arrivalLane="4o_2" arrivalPos="488.65" arrivalSpeed="12.89" duration="118.00" routeLength="995.39" waitingTime="32.00" waitingCount="1" stopTime="0.00" timeLoss="45.57" rerouteNo="0" devices="tripinfo_s2n_30" vType="stdSKVehicle" speedFactor="1.18" vaporized=""/>
    <tripinfo id="e2s_8" depart="9.00" departLane="2fi_0" departPos="5.10" departSpeed="6.96" departDelay="0.00" arrival="142.00" arrivalLane="3o_0" arrivalPos="488.65" arrivalSpeed="10.39" duration="133.00" routeLength="993.65" waitingTime="31.00" waitingCount="1" stopTime="0.00" timeLoss="42.29" rerouteNo="0" devices="tripinfo_e2s_8" vType="stdSKVehicle" speedFactor="0.94" vaporized=""/>
    <tripinfo id="w2n_17" depart="14.00" departLane="1fi_1" departPos="5.10" departSpeed="6.20" departDelay="0.00" arrival="142.00" arrivalLane="4o_0" arrivalPos="488.65" arrivalSpeed="10.28" duration="128.00" routeLength="993.65" waitingTime="25.00" waitingCount="1" stopTime="0.00" timeLoss="37.12" rerouteNo="0" devices="tripinfo_w2n_17" vType="stdSKVehicle" speedFactor="0.94" vaporized=""/>
    <tripinfo id="w2n_58" depart="48.00" departLane="1fi_0" departPos="5.10" departSpeed="4.86" departDelay="0.00" arrival="143.00" arrivalLane="4o_1" arrivalPos="488.65" arrivalSpeed="11.16" duration="95.00" routeLength="993.65" waitingTime="0.00" waitingCount="0" stopTime="0.00" timeLoss="11.16" rerouteNo="0" devices="tripinfo_w2n_58" vType="stdSKVehicle" speedFactor="1.02" vaporized=""/>
    <tripinfo id="w2n_47" depart="41.00" departLane="1fi_1" departPos="5.10" departSpeed="5.16" departDelay="0.00" arrival="146.00" arrivalLane="4o_0" arrivalPos="488.65" arrivalSpeed="8.87" duration="105.00" routeLength="993.65" waitingTime="0.00" waitingCount="0" stopTime="0.00" timeLoss="10.24" rerouteNo="0" devices="tripinfo_w2n_47" vType="stdSKVehicle" speedFactor="0.90" vaporized=""/>
    <tripinfo id="s2n_44" depart="39.00" departLane="3fi_1" departPos="5.10" departSpeed="1.34" departDelay="0.00" arrival="148.00" arrivalLane="4o_1" arrivalPos="488.65" arrivalSpeed="10.94" duration="109.00" routeLength="995.39" waitingTime="14.00" waitingCount="1" stopTime="0.00" timeLoss="26.88" rerouteNo="0" devices="tripinfo_s2n_44" vType="stdSKVehicle" speedFactor="1.04" vaporized=""/>
    <tripinfo id="s2n_40" depart="36.00" departLane="3fi_1" departPos="5.10" departSpeed="11.15" departDelay="0.00" arrival="148.00" arrivalLane="4o_0" arrivalPos="488.65" arrivalSpeed="10.81" duration="112.00" routeLength="995.39" waitingTime="17.00" waitingCount="1" stopTime="0.00" timeLoss="28.83" rerouteNo="0" devices="tripinfo_s2n_40" vType="stdSKVehicle" speedFactor="1.03" vaporized=""/>
    <tripinfo id="n2w_38" depart="36.00" departLane="4fi_1" departPos="5.10" departSpeed="5.19" departDelay="0.00" arrival="149.00" arrivalLane="1o_0" arrivalPos="488.65" arrivalSpeed="11.78" duration="113.00" routeLength="977.69" waitingTime="25.00" waitingCount="1" stopTime="0.00" timeLoss="36.93" rerouteNo="0" devices="tripinfo_n2w_38" vType="stdSKVehicle" speedFactor="1.10" vaporized=""/>
    <tripinfo id="s2n_43" depart="38.00" departLane="3fi_0" departPos="5.10" departSpeed="7.89" departDelay="0.00" arrival="150.00" arrivalLane="4o_0" arrivalPos="488.65" arrivalSpeed="11.21" duration="112.00" routeLength="995.39" waitingTime="17.00" waitingCount="1" stopTime="0.00" timeLoss="29.25" rerouteNo="0" devices="tripinfo_s2n_43" vType="stdSKVehicle" speedFactor="1.04" vaporized=""/>
    <tripinfo id="n2s_15" depart="13.00" departLane="4fi_0" departPos="5.10" departSpeed="1.28" departDelay="0.00" arrival="151.00" arrivalLane="3o_1" arrivalPos="488.65" arrivalSpeed="9.95" duration="138.00" routeLength="995.39" waitingTime="35.00" waitingCount="1" stopTime="0.00" timeLoss="46.27" rerouteNo="0" devices="tripinfo_n2s_15" vType="stdSKVehicle" speedFactor="0.93" vaporized=""/>
    <tripinfo id="n2w_35" depart="30.00" departLane="4fi_0" departPos="5.10" departSpeed="11.09" departDelay="0.00" arrival="151.00" arrivalLane="1o_0" arrivalPos="488.65" arrivalSpeed="11.06" duration="121.00" routeLength="977.69" waitingTime="27.00" waitingCount="1" stopTime="0.00" timeLoss="38.62" rerouteNo="0" devices="tripinfo_n2w_35" vType="stdSKVehicle" speedFactor="1.02" vaporized=""/>
    <tripinfo id="e2s_24" depart="19.00" departLane="2fi_1" departPos="5.10" departSpeed="4.37" departDelay="0.00" arrival="151.00" arrivalLane="3o_0" arrivalPos="488.65" arrivalSpeed="8.97" duration="132.00" routeLength="993.65" waitingTime="16.00" waitingCount="1" stopTime="0.00" timeLoss="28.98" rerouteNo="0" devices="tripinfo_e2s_24" vType="stdSKVehicle" speedFactor="0.83" vaporized=""/>
    <tripinfo id="s2n_46" depart="41.00" departLane="3fi_1" departPos="5.10" departSpeed="2.68" departDelay="0.00" arrival="152.00" arrivalLane="4o_1" arrivalPos="488.65" arrivalSpeed="10.49" duration="111.00" routeLength="995.39" waitingTime="12.00" waitingCount="1" stopTime="0.00" timeLoss="25.43" rerouteNo="0" devices="tripinfo_s2n_46" vType="stdSKVehicle" speedFactor="1.00" vaporized=""/>
    <tripinfo id="n2s_32" depart="24.00" departLane="4fi_1" departPos="5.10" departSpeed="9.68" departDelay="0.00" arrival="152.00" arrivalLane="3o_2" arrivalPos="488.65" arrivalSpeed="10.61" duration="128.00" routeLength="995.39" waitingTime="27.00" waitingCount="1" stopTime="0.00" timeLoss="42.99" rerouteNo="0" devices="tripinfo_n2s_32" vType="stdSKVehicle" speedFactor="1.01" vaporized=""/>
    <tripinfo id="s2n_52" depart="44.00" departLane="3fi_0" departPos="5.10" departSpeed="8.19" departDelay="0.00" arrival="152.00" arrivalLane="4o_0" arrivalPos="488.65" arrivalSpeed="10.72" duration="108.00" routeLength="995.39" waitingTime="11.00" waitingCount="1" stopTime="0.00" timeLoss="23.53" rerouteNo="0" devices="tripinfo_s2n_52" vType="stdSKVehicle" speedFactor="1.02" vaporized=""/>
    <tripinfo id="n2s_22" depart="17.00" departLane="4fi_1" departPos="5.10" departSpeed="8.03" departDelay="0.00" arrival="153.00" arrivalLane="3o_0" arrivalPos="488.65" arrivalSpeed="10.52" duration="136.00" routeLength="995.39" waitingTime="34.00" waitingCount="1" stopTime="0.00" timeLoss="48.50" rerouteNo="0" devices="tripinfo_n2s_22" vType="stdSKVehicle" speedFactor="0.98" vaporized=""/>
    <tripinfo id="n2s_16" depart="14.00" departLane="4fi_1" departPos="5.10" departSpeed="3.70" departDelay="0.00" arrival="155.00" arrivalLane="3o_1" arrivalPos="488.65" arrivalSpeed="8.86" duration="141.00" routeLength="995.39" waitingTime="31.00" waitingCount="1" stopTime="0.00" timeLoss="43.53" rerouteNo="0" devices="tripinfo_n2s_16" vType="stdSKVehicle" speedFactor="0.88" vaporized=""/>
    <tripinfo id="n2s_73" depart="61.00" departLane="4fi_1" departPos="5.10" departSpeed="6.40" departDelay="0.00" arrival="156.00" arrivalLane="3o_2" arrivalPos="488.65" arrivalSpeed="11.46" duration="95.00" routeLength="995.39" waitingTime="0.00" waitingCount="0" stopTime="0.00" timeLoss="14.29" rerouteNo="0" devices="tripinfo_n2s_73" vType="stdSKVehicle" speedFactor="1.06" vaporized=""/>
    <tripinfo id="n2s_26" depart="21.00" departLane="4fi_1" departPos="5.10" departSpeed="3.56" departDelay="0.00" arrival="156.00" arrivalLane="3o_0" arrivalPos="488.65" arrivalSpeed="9.04" duration="135.00" routeLength="995.39" waitingTime="27.00" waitingCount="1" stopTime="0.00" timeLoss="41.91" rerouteNo="0" devices="tripinfo_n2s_26" vType="stdSKVehicle" speedFactor="0.92" vaporized=""/>
    <tripinfo id="s2n_77" depart="62.00" departLane="3fi_1" departPos="5.10" departSpeed="0.08" departDelay="0.00" arrival="156.00" arrivalLane="4o_0" arrivalPos="488.65" arrivalSpeed="10.79" duration="94.00" routeLength="995.39" waitingTime="0.00" waitingCount="0" stopTime="0.00" timeLoss="7.35" rerouteNo="0" devices="tripinfo_s2n_77" vType="stdSKVehicle" speedFactor="0.98" vaporized=""/>
    <tripinfo id="n2s_41" depart="37.00" departLane="4fi_0" departPos="5.10" departSpeed="4.07" departDelay="0.00" arrival="157.00" arrivalLane="3o_1" arrivalPos="488.65" arrivalSpeed="9.52" duration="120.00" routeLength="995.39" waitingTime="16.00" waitingCount="1" stopTime="0.00" timeLoss="30.66" rerouteNo="0" devices="tripinfo_n2s_41" vType="stdSKVehicle" speedFactor="0.96" vaporized=""/>
    <tripinfo id="n2s_23" depart="19.00" departLane="4fi_0" departPos="5.10" departSpeed="5.77" departDelay="0.00" arrival="158.00" arrivalLane="3o_0" arrivalPos="488.65" arrivalSpeed="9.30" duration="139.00" routeLength="995.39" waitingTime="30.00" waitingCount="1" stopTime="0.00" timeLoss="43.12" rerouteNo="0" devices="tripinfo_n2s_23" vType="stdSKVehicle" speedFactor="0.89" vaporized=""/>
    <tripinfo id="n2s_55" depart="47.00" departLane="4fi_0" departPos="5.10" departSpeed="7.40" departDelay="0.00" arrival="159.00" arrivalLane="3o_1" arrivalPos="488.65" arrivalSpeed="10.35" duration="112.00" routeLength="995.39" waitingTime="9.00" waitingCount="1" stopTime="0.00" timeLoss="26.22" rerouteNo="0" devices="tripinfo_n2s_55" vType="stdSKVehicle" speedFactor="1.00" vaporized=""/>
    <tripinfo id="s2n_98" depart="79.00" departLane="3fi_0" departPos="5.10" departSpeed="7.77" departDelay="0.00" arrival="160.00" arrivalLane="4o_1" arrivalPos="488.65" arrivalSpeed="11.85" duration="81.00" routeLength="995.39" waitingTime="0.00" waitingCount="0" stopTime="0.00" timeLoss="4.46" rerouteNo="0" devices="tripinfo_s2n_98" vType="stdSKVehicle" speedFactor="1.12" vaporized=""/>
    <tripinfo id="n2s_79" depart="64.00" departLane="4fi_1" departPos="5.10" departSpeed="1.78" departDelay="0.00" arrival="160.00" arrivalLane="3o_2" arrivalPos="488.65" arrivalSpeed="11.78" duration="96.00" routeLength="995.39" waitingTime="0.00" waitingCount="0" stopTime="0.00" timeLoss="17.29" rerouteNo="0" devices="tripinfo_n2s_79" vType="stdSKVehicle" speedFactor="1.09" vaporized=""/>
    <tripinfo id="n2s_78" depart="63.00" departLane="4fi_1" departPos="5.10" departSpeed="7.46" departDelay="0.00" arrival="161.00" arrivalLane="3o_1" arrivalPos="488.65" arrivalSpeed="10.32" duration="98.00" routeLength="995.39" waitingTime="0.00" waitingCount="0" stopTime="0.00" timeLoss="13.00" rerouteNo="0" devices="tripinfo_n2s_78" vType="stdSKVehicle" speedFactor="1.01" vaporized=""/>
    <tripinfo id="n2w_71" depart="60.00" departLane="4fi_0" departPos="5.10" departSpeed="3.90" departDelay="0.00" arrival="162.00" arrivalLane="1o_0" arrivalPos="488.65" arrivalSpeed="10.02" duration="102.00" routeLength="977.69" waitingTime="0.00" waitingCount="0" stopTime="0.00" timeLoss="15.81" rerouteNo="0" devices="tripinfo_n2w_71" vType="stdSKVehicle" speedFactor="0.97" vaporized=""/>
    <tripinfo id="s2n_90" depart="73.00" departLane="3fi_0" departPos="5.10" departSpeed="7.41" departDelay="0.00" arrival="162.00" arrivalLane="4o_0" arrivalPos="488.65" arrivalSpeed="10.79" duration="89.00" routeLength="995.39" waitingTime="0.00" waitingCount="0" stopTime="0.00" timeLoss="5.10" rerouteNo="0" devices="tripinfo_s2n_90" vType="stdSKVehicle" speedFactor="1.02" vaporized=""/>
    <tripinfo id="n2s_87" depart="72.00" departLane="4fi_0" departPos="5.10" departSpeed="7.63" departDelay="0.00" arrival="163.00" arrivalLane="3o_2" arrivalPos="488.65" arrivalSpeed="10.61" duration="91.00" routeLength="995.39" waitingTime="0.00" waitingCount="0" stopTime="0.00" timeLoss="8.74" rerouteNo="0" devices="tripinfo_n2s_87" vType="stdSKVehicle" speedFactor="1.04" vaporized=""/>
    <tripinfo id="n2s_81" depart="69.00" departLane="4fi_1" departPos="5.10" departSpeed="10.69" departDelay="0.00" arrival="164.00" arrivalLane="3o_1" arrivalPos="488.65" arrivalSpeed="11.00" duration="95.00" routeLength="995.39" waitingTime="0.00" waitingCount="0" stopTime="0.00" timeLoss="9.29" rerouteNo="0" devices="tripinfo_n2s_81" vType="stdSKVehicle" speedFactor="1.00" vaporized=""/>
    <tripinfo id="n2s_56" depart="48.00" departLane="4fi_0" departPos="5.10" departSpeed="5.21" departDelay="0.00" arrival="164.00" arrivalLane="3o_0" arrivalPos="488.65" arrivalSpeed="9.08" duration="116.00" routeLength="995.39" waitingTime="6.00" waitingCount="1" stopTime="0.00" timeLoss="20.55" rerouteNo="0" devices="tripinfo_n2s_56" vType="stdSKVehicle" speedFactor="0.90" vaporized=""/>
    <tripinfo id="s2n_99" depart="80.00" departLane="3fi_0" departPos="5.10" departSpeed="3.73" departDelay="0.00" arrival="164.00" arrivalLane="4o_0" arrivalPos="488.65" arrivalSpeed="11.94" duration="84.00" routeLength="995.39" waitingTime="0.00" waitingCount="0" stopTime="0.00" timeLoss="6.06" rerouteNo="0" devices="tripinfo_s2n_99" vType="stdSKVehicle" speedFactor="1.10" vaporized=""/>
    <tripinfo id="n2w_65" depart="57.00" departLane="4fi_1" departPos="5.10" departSpeed="9.14" departDelay="0.00" arrival="165.00" arrivalLane="1o_0" arrivalPos="488.65" arrivalSpeed="8.69" duration="108.00" routeLength="977.69" waitingTime="0.00" waitingCount="0" stopTime="0.00" timeLoss="12.83" rerouteNo="0" devices="tripinfo_n2w_65" vType="stdSKVehicle" speedFactor="0.88" vaporized=""/>
    <tripinfo id="n2s_83" depart="70.00" departLane="4fi_1" departPos="5.10" departSpeed="6.78" departDelay="0.00" arrival="167.00" arrivalLane="3o_0" arrivalPos="488.65" arrivalSpeed="10.00" duration="97.00" routeLength="995.39" waitingTime="0.00" waitingCount="0" stopTime="0.00" timeLoss="9.04" rerouteNo="0" devices="tripinfo_n2s_83" vType="stdSKVehicle" speedFactor="0.97" vaporized=""/>
    <tripinfo id="s2w_45" depart="41.00" departLane="3fi_0" departPos="5.10" departSpeed="0.93" departDelay="1.00" arrival="171.00" arrivalLane="1o_0" arrivalPos="488.65" arrivalSpeed="12.02" duration="130.00" routeLength="993.65" waitingTime="40.00" waitingCount="1" stopTime="0.00" timeLoss="51.99" rerouteNo="0" devices="tripinfo_s2w_45" vType="stdSKVehicle" speedFactor="1.09" vaporized=""/>
    <tripinfo id="s2w_96" depart="78.00" departLane="3fi_1" departPos="5.10" departSpeed="2.34" departDelay="0.00" arrival="177.00" arrivalLane="1o_0" arrivalPos="488.65" arrivalSpeed="9.94" duration="99.00" routeLength="993.65" waitingTime="3.00" waitingCount="1" stopTime="0.00" timeLoss="14.32" rerouteNo="0" devices="tripinfo_s2w_96" vType="stdSKVehicle" speedFactor="1.01" vaporized=""/>
    <tripinfo id="e2w_57" depart="49.00" departLane="2fi_1" departPos="5.10" departSpeed="2.85" departDelay="1.00" arrival="178.00" arrivalLane="1o_1" arrivalPos="488.65" arrivalSpeed="12.69" duration="129.00" routeLength="995.39" waitingTime="44.00" waitingCount="1" stopTime="0.00" timeLoss="54.43" rerouteNo="0" devices="tripinfo_e2w_57" vType="stdSKVehicle" speedFactor="1.14" vaporized=""/>
    <tripinfo id="w2s_61" depart="52.00" departLane="1fi_0" departPos="5.10" departSpeed="2.72" departDelay="1.00" arrival="182.00" arrivalLane="3o_1" arrivalPos="488.65" arrivalSpeed="11.37" duration="130.00" routeLength="977.69" waitingTime="36.00" waitingCount="1" stopTime="0.00" timeLoss="54.97" rerouteNo="0" devices="tripinfo_w2s_61" vType="stdSKVehicle" speedFactor="1.12" vaporized=""/>
    <tripinfo id="w2s_60" depart="50.00" departLane="1fi_0" departPos="5.10" departSpeed="2.90" departDelay="0.00" arrival="182.00" arrivalLane="3o_0" arrivalPos="488.65" arrivalSpeed="10.88" duration="132.00" routeLength="977.69" waitingTime="37.00" waitingCount="1" stopTime="0.00" timeLoss="53.96" rerouteNo="0" devices="tripinfo_w2s_60" vType="stdSKVehicle" speedFactor="1.08" vaporized=""/>
    <tripinfo id="e2w_53" depart="45.00" departLane="2fi_0" departPos="5.10" departSpeed="1.19" departDelay="0.00" arrival="183.00" arrivalLane="1o_0" arrivalPos="488.65" arrivalSpeed="11.88" duration="138.00" routeLength="995.39" waitingTime="42.00" waitingCount="1" stopTime="0.00" timeLoss="59.56" rerouteNo="0" devices="tripinfo_e2w_53" vType="stdSKVehicle" speedFactor="1.10" vaporized=""/>
    <tripinfo id="w2e_59" depart="50.00" departLane="1fi_1" departPos="5.10" departSpeed="10.03" departDelay="0.00" arrival="186.00" arrivalLane="2o_0" arrivalPos="488.65" arrivalSpeed="9.88" duration="136.00" routeLength="995.39" waitingTime="36.00" waitingCount="1" stopTime="0.00" timeLoss="47.94" rerouteNo="0" devices="tripinfo_w2e_59" vType="stdSKVehicle" speedFactor="0.97" vaporized=""/>
    <tripinfo id="w2e_94" depart="77.00" departLane="1fi_1" departPos="5.10" departSpeed="6.27" departDelay="0.00" arrival="187.00" arrivalLane="2o_1" arrivalPos="488.65" arrivalSpeed="11.66" duration="110.00" routeLength="995.39" waitingTime="20.00" waitingCount="1" stopTime="0.00" timeLoss="31.18" rerouteNo="0" devices="tripinfo_w2e_94" vType="stdSKVehicle" speedFactor="1.09" vaporized=""/>
    <tripinfo id="w2e_63" depart="54.00" departLane="1fi_1" departPos="5.10" departSpeed="7.79" departDelay="0.00" arrival="188.00" arrivalLane="2o_1" arrivalPos="488.65" arrivalSpeed="10.58" duration="134.00" routeLength="995.39" waitingTime="33.00" waitingCount="1" stopTime="0.00" timeLoss="47.42" rerouteNo="0" devices="tripinfo_w2e_63" vType="stdSKVehicle" speedFactor="0.99" vaporized=""/>