<?xml version="1.0" encoding="UTF-8"?>

<!-- generated on 2019.3.21 21:38:08 by SUMO gui Version 0.32.0
<?xml version="1.0" encoding="UTF-8"?>

<configuration xmlns:xsi="http://www.w3.org/2001/XMLSchema-instance" xsi:noNamespaceSchemaLocation="http://sumo.dlr.de/xsd/sumoConfiguration.xsd">

    <input>
        <net-file value="data/net.net.xml"/>
        <route-files value="data/net.rou.xml"/>
    </input>

    <output>
        <tripinfo-output value="tripinfo.xml"/>
    </output>

    <time>
        <begin value="0"/>
    </time>

    <report>
        <verbose value="true"/>
        <no-step-log value="true"/>
    </report>

    <traci_server>
        <remote-port value="55931"/>
    </traci_server>

</configuration>
-->

<tripinfos xmlns:xsi="http://www.w3.org/2001/XMLSchema-instance" xsi:noNamespaceSchemaLocation="http://sumo.dlr.de/xsd/tripinfo_file.xsd">
    <tripinfo id="w2n_0" depart="0.00" departLane="1fi_0" departPos="5.10" departSpeed="7.92" departDelay="0.00" arrival="91.00" arrivalLane="4o_0" arrivalPos="488.65" arrivalSpeed="9.81" duration="91.00" routeLength="993.65" waitSteps="0" timeLoss="5.22" rerouteNo="0" devices="tripinfo_w2n_0" vType="stdSKVehicle" speedFactor="1.00" vaporized=""/>
    <tripinfo id="n2s_10" depart="10.00" departLane="4fi_1" departPos="5.10" departSpeed="0.31" departDelay="0.00" arrival="104.00" arrivalLane="3o_0" arrivalPos="488.65" arrivalSpeed="10.74" duration="94.00" routeLength="995.39" waitSteps="0" timeLoss="8.47" rerouteNo="0" devices="tripinfo_n2s_10" vType="stdSKVehicle" speedFactor="1.00" vaporized=""/>
    <tripinfo id="s2n_6" depart="8.00" departLane="3fi_0" departPos="5.10" departSpeed="1.44" departDelay="0.00" arrival="105.00" arrivalLane="4o_0" arrivalPos="488.65" arrivalSpeed="10.67" duration="97.00" routeLength="995.39" waitSteps="0" timeLoss="11.12" rerouteNo="0" devices="tripinfo_s2n_6" vType="stdSKVehicle" speedFactor="1.00" vaporized=""/>
    <tripinfo id="n2s_16" depart="14.00" departLane="4fi_1" departPos="5.10" departSpeed="4.22" departDelay="0.00" arrival="106.00" arrivalLane="3o_1" arrivalPos="488.65" arrivalSpeed="10.48" duration="92.00" routeLength="995.39" waitSteps="0" timeLoss="6.26" rerouteNo="0" devices="tripinfo_n2s_16" vType="stdSKVehicle" speedFactor="1.00" vaporized=""/>
    <tripinfo id="s2n_19" depart="15.00" departLane="3fi_1" departPos="5.10" departSpeed="5.40" departDelay="0.00" arrival="107.00" arrivalLane="4o_0" arrivalPos="488.65" arrivalSpeed="10.71" duration="92.00" routeLength="995.39" waitSteps="0" timeLoss="6.50" rerouteNo="0" devices="tripinfo_s2n_19" vType="stdSKVehicle" speedFactor="1.00" vaporized=""/>
    <tripinfo id="n2s_15" depart="13.00" departLane="4fi_0" departPos="5.10" departSpeed="1.38" departDelay="0.00" arrival="107.00" arrivalLane="3o_0" arrivalPos="488.65" arrivalSpeed="9.96" duration="94.00" routeLength="995.39" waitSteps="0" timeLoss="8.90" rerouteNo="0" devices="tripinfo_n2s_15" vType="stdSKVehicle" speedFactor="1.00" vaporized=""/>
    <tripinfo id="n2s_22" depart="17.00" departLane="4fi_1" departPos="5.10" departSpeed="8.23" departDelay="0.00" arrival="108.00" arrivalLane="3o_1" arrivalPos="488.65" arrivalSpeed="10.64" duration="91.00" routeLength="995.39" waitSteps="0" timeLoss="5.63" rerouteNo="0" devices="tripinfo_n2s_22" vType="stdSKVehicle" speedFactor="1.00" vaporized=""/>
    <tripinfo id="n2s_23" depart="19.00" departLane="4fi_0" departPos="5.10" departSpeed="6.48" departDelay="0.00" arrival="110.00" arrivalLane="3o_0" arrivalPos="488.65" arrivalSpeed="10.25" duration="91.00" routeLength="995.39" waitSteps="0" timeLoss="5.54" rerouteNo="0" devices="tripinfo_n2s_23" vType="stdSKVehicle" speedFactor="1.00" vaporized=""/>
    <tripinfo id="n2s_26" depart="21.00" departLane="4fi_1" departPos="5.10" departSpeed="3.88" departDelay="0.00" arrival="112.00" arrivalLane="3o_0" arrivalPos="488.65" arrivalSpeed="10.31" duration="91.00" routeLength="995.39" waitSteps="0" timeLoss="5.84" rerouteNo="0" devices="tripinfo_n2s_26" vType="stdSKVehicle" speedFactor="1.00" vaporized=""/>
    <tripinfo id="n2s_32" depart="24.00" departLane="4fi_1" departPos="5.10" departSpeed="9.63" departDelay="0.00" arrival="115.00" arrivalLane="3o_0" arrivalPos="488.65" arrivalSpeed="10.95" duration="91.00" routeLength="995.39" waitSteps="0" timeLoss="5.24" rerouteNo="0" devices="tripinfo_n2s_32" vType="stdSKVehicle" speedFactor="1.00" vaporized=""/>
    <tripinfo id="s2n_30" depart="23.00" departLane="3fi_0" departPos="5.10" departSpeed="0.58" departDelay="0.00" arrival="116.00" arrivalLane="4o_0" arrivalPos="488.65" arrivalSpeed="10.56" duration="93.00" routeLength="995.39" waitSteps="0" timeLoss="7.05" rerouteNo="0" devices="tripinfo_s2n_30" vType="stdSKVehicle" speedFactor="1.00" vaporized=""/>
    <tripinfo id="s2w_3" depart="5.00" departLane="3fi_1" departPos="5.10" departSpeed="9.73" departDelay="0.00" arrival="120.00" arrivalLane="1o_0" arrivalPos="488.65" arrivalSpeed="10.96" duration="115.00" routeLength="993.65" waitSteps="21" timeLoss="29.77" rerouteNo="0" devices="tripinfo_s2w_3" vType="stdSKVehicle" speedFactor="1.00" vaporized=""/>
    <tripinfo id="n2e_7" depart="9.00" departLane="4fi_0" departPos="5.10" departSpeed="9.02" departDelay="0.00" arrival="121.00" arrivalLane="2o_0" arrivalPos="488.65" arrivalSpeed="10.67" duration="112.00" routeLength="993.65" waitSteps="15" timeLoss="26.34" rerouteNo="0" devices="tripinfo_n2e_7" vType="stdSKVehicle" speedFactor="1.00" vaporized=""/>
    <tripinfo id="n2e_13" depart="11.00" departLane="4fi_0" departPos="5.10" departSpeed="7.54" departDelay="0.00" arrival="123.00" arrivalLane="2o_1" arrivalPos="488.65" arrivalSpeed="10.30" duration="112.00" routeLength="993.65" waitSteps="14" timeLoss="26.37" rerouteNo="0" devices="tripinfo_n2e_13" vType="stdSKVehicle" speedFactor="1.00" vaporized=""/>
    <tripinfo id="e2w_11" depart="10.00" departLane="2fi_1" departPos="5.10" departSpeed="6.07" departDelay="0.00" arrival="130.00" arrivalLane="1o_0" arrivalPos="488.65" arrivalSpeed="10.88" duration="120.00" routeLength="995.39" waitSteps="25" timeLoss="34.32" rerouteNo="0" devices="tripinfo_e2w_11" vType="stdSKVehicle" speedFactor="1.00" vaporized=""/>
    <tripinfo id="w2e_1" depart="1.00" departLane="1fi_1" departPos="5.10" departSpeed="6.55" departDelay="0.00" arrival="130.00" arrivalLane="2o_0" arrivalPos="488.65" arrivalSpeed="10.68" duration="129.00" routeLength="995.39" waitSteps="32" timeLoss="43.16" rerouteNo="0" devices="tripinfo_w2e_1" vType="stdSKVehicle" speedFactor="1.00" vaporized=""/>
    <tripinfo id="w2e_4" depart="6.00" departLane="1fi_0" departPos="5.10" departSpeed="7.04" departDelay="0.00" arrival="130.00" arrivalLane="2o_1" arrivalPos="488.65" arrivalSpeed="10.62" duration="124.00" routeLength="995.39" waitSteps="27" timeLoss="38.22" rerouteNo="0" devices="tripinfo_w2e_4" vType="stdSKVehicle" speedFactor="1.00" vaporized=""/>
    <tripinfo id="e2w_18" depart="15.00" departLane="2fi_0" departPos="5.10" departSpeed="10.21" departDelay="0.00" arrival="130.00" arrivalLane="1o_1" arrivalPos="488.65" arrivalSpeed="10.97" duration="115.00" routeLength="995.39" waitSteps="19" timeLoss="29.51" rerouteNo="0" devices="tripinfo_e2w_18" vType="stdSKVehicle" speedFactor="1.00" vaporized=""/>
    <tripinfo id="w2s_2" depart="4.00" departLane="1fi_1" departPos="5.10" departSpeed="5.18" departDelay="0.00" arrival="130.00" arrivalLane="3o_0" arrivalPos="488.65" arrivalSpeed="10.85" duration="126.00" routeLength="977.69" waitSteps="30" timeLoss="41.81" rerouteNo="0" devices="tripinfo_w2s_2" vType="stdSKVehicle" speedFactor="1.00" vaporized=""/>
    <tripinfo id="e2n_12" depart="10.00" departLane="2fi_0" departPos="5.10" departSpeed="0.74" departDelay="0.00" arrival="131.00" arrivalLane="4o_0" arrivalPos="488.65" arrivalSpeed="10.74" duration="121.00" routeLength="977.69" waitSteps="22" timeLoss="36.47" rerouteNo="0" devices="tripinfo_e2n_12" vType="stdSKVehicle" speedFactor="1.00" vaporized=""/>
    <tripinfo id="w2e_5" depart="7.00" departLane="1fi_1" departPos="5.10" departSpeed="0.36" departDelay="0.00" arrival="132.00" arrivalLane="2o_0" arrivalPos="488.65" arrivalSpeed="10.21" duration="125.00" routeLength="995.39" waitSteps="25" timeLoss="39.74" rerouteNo="0" devices="tripinfo_w2e_5" vType="stdSKVehicle" speedFactor="1.00" vaporized=""/>
    <tripinfo id="e2w_27" depart="21.00" departLane="2fi_1" departPos="5.10" departSpeed="7.75" departDelay="0.00" arrival="132.00" arrivalLane="1o_1" arrivalPos="488.65" arrivalSpeed="10.97" duration="111.00" routeLength="995.39" waitSteps="13" timeLoss="25.48" rerouteNo="0" devices="tripinfo_e2w_27" vType="stdSKVehicle" speedFactor="1.00" vaporized=""/>
    <tripinfo id="w2s_9" depart="9.00" departLane="1fi_0" departPos="5.10" departSpeed="6.62" departDelay="0.00" arrival="132.00" arrivalLane="3o_0" arrivalPos="488.65" arrivalSpeed="10.29" duration="123.00" routeLength="977.69" waitSteps="27" timeLoss="38.91" rerouteNo="0" devices="tripinfo_w2s_9" vType="stdSKVehicle" speedFactor="1.00" vaporized=""/>
    <tripinfo id="e2w_29" depart="23.00" departLane="2fi_0" departPos="5.10" departSpeed="0.44" departDelay="0.00" arrival="134.00" arrivalLane="1o_0" arrivalPos="488.65" arrivalSpeed="10.93" duration="111.00" routeLength="995.39" waitSteps="12" timeLoss="25.25" rerouteNo="0" devices="tripinfo_e2w_29" vType="stdSKVehicle" speedFactor="1.00" vaporized=""/>
    <tripinfo id="w2e_14" depart="12.00" departLane="1fi_1" departPos="5.10" departSpeed="5.47" departDelay="0.00" arrival="134.00" arrivalLane="2o_0" arrivalPos="488.65" arrivalSpeed="11.09" duration="122.00" routeLength="995.39" waitSteps="23" timeLoss="37.01" rerouteNo="0" devices="tripinfo_w2e_14" vType="stdSKVehicle" speedFactor="1.00" vaporized=""/>
    <tripinfo id="e2w_34" depart="28.00" departLane="2fi_1" departPos="5.10" departSpeed="4.48" departDelay="0.00" arrival="134.00" arrivalLane="1o_1" arrivalPos="488.65" arrivalSpeed="10.74" duration="106.00" routeLength="995.39" waitSteps="9" timeLoss="20.59" rerouteNo="0" devices="tripinfo_e2w_34" vType="stdSKVehicle" speedFactor="1.00" vaporized=""/>
    <tripinfo id="w2s_21" depart="16.00" departLane="1fi_0" departPos="5.10" departSpeed="1.44" departDelay="0.00" arrival="134.00" arrivalLane="3o_0" arrivalPos="488.65" arrivalSpeed="10.01" duration="118.00" routeLength="977.69" waitSteps="21" timeLoss="34.05" rerouteNo="0" devices="tripinfo_w2s_21" vType="stdSKVehicle" speedFactor="1.00" vaporized=""/>
    <tripinfo id="e2w_36" depart="31.00" departLane="2fi_0" departPos="5.10" departSpeed="9.38" departDelay="0.00" arrival="136.00" arrivalLane="1o_2" arrivalPos="488.65" arrivalSpeed="10.46" duration="105.00" routeLength="995.39" waitSteps="6" timeLoss="19.45" rerouteNo="0" devices="tripinfo_e2w_36" vType="stdSKVehicle" speedFactor="1.00" vaporized=""/>
    <tripinfo id="e2w_33" depart="26.00" departLane="2fi_0" departPos="5.10" departSpeed="0.34" departDelay="1.00" arrival="136.00" arrivalLane="1o_0" arrivalPos="488.65" arrivalSpeed="9.89" duration="110.00" routeLength="995.39" waitSteps="11" timeLoss="24.58" rerouteNo="0" devices="tripinfo_e2w_33" vType="stdSKVehicle" speedFactor="1.00" vaporized=""/>
    <tripinfo id="w2e_20" depart="16.00" departLane="1fi_1" departPos="5.10" departSpeed="1.75" departDelay="0.00" arrival="136.00" arrivalLane="2o_1" arrivalPos="488.65" arrivalSpeed="10.44" duration="120.00" routeLength="995.39" waitSteps="21" timeLoss="34.91" rerouteNo="0" devices="tripinfo_w2e_20" vType="stdSKVehicle" speedFactor="1.00" vaporized=""/>
    <tripinfo id="w2e_25" depart="20.00" departLane="1fi_1" departPos="5.10" departSpeed="5.20" departDelay="0.00" arrival="138.00" arrivalLane="2o_0" arrivalPos="488.65" arrivalSpeed="10.02" duration="118.00" routeLength="995.39" waitSteps="18" timeLoss="32.33" rerouteNo="0" devices="tripinfo_w2e_25" vType="stdSKVehicle" speedFactor="1.00" vaporized=""/>
    <tripinfo id="e2w_39" depart="36.00" departLane="2fi_1" departPos="5.10" departSpeed="3.23" departDelay="0.00" arrival="138.00" arrivalLane="1o_1" arrivalPos="488.65" arrivalSpeed="10.06" duration="102.00" routeLength="995.39" waitSteps="3" timeLoss="16.49" rerouteNo="0" devices="tripinfo_e2w_39" vType="stdSKVehicle" speedFactor="1.00" vaporized=""/>
    <tripinfo id="w2s_28" depart="22.00" departLane="1fi_1" departPos="5.10" departSpeed="0.67" departDelay="0.00" arrival="138.00" arrivalLane="3o_0" arrivalPos="488.65" arrivalSpeed="10.86" duration="116.00" routeLength="977.69" waitSteps="16" timeLoss="31.74" rerouteNo="0" devices="tripinfo_w2s_28" vType="stdSKVehicle" speedFactor="1.00" vaporized=""/>
    <tripinfo id="e2w_37" depart="33.00" departLane="2fi_0" departPos="5.10" departSpeed="0.11" departDelay="0.00" arrival="139.00" arrivalLane="1o_0" arrivalPos="488.65" arrivalSpeed="10.85" duration="106.00" routeLength="995.39" waitSteps="5" timeLoss="20.10" rerouteNo="0" devices="tripinfo_e2w_37" vType="stdSKVehicle" speedFactor="1.00" vaporized=""/>
    <tripinfo id="w2e_31" depart="23.00" departLane="1fi_0" departPos="5.10" departSpeed="10.56" departDelay="0.00" arrival="139.00" arrivalLane="2o_1" arrivalPos="488.65" arrivalSpeed="11.02" duration="116.00" routeLength="995.39" waitSteps="15" timeLoss="29.91" rerouteNo="0" devices="tripinfo_w2e_31" vType="stdSKVehicle" speedFactor="1.00" vaporized=""/>
    <tripinfo id="e2w_53" depart="45.00" departLane="2fi_0" departPos="5.10" departSpeed="6.92" departDelay="0.00" arrival="140.00" arrivalLane="1o_2" arrivalPos="488.65" arrivalSpeed="10.61" duration="95.00" routeLength="995.39" waitSteps="0" timeLoss="9.13" rerouteNo="0" devices="tripinfo_e2w_53" vType="stdSKVehicle" speedFactor="1.00" vaporized=""/>
    <tripinfo id="e2n_50" depart="43.00" departLane="2fi_0" departPos="5.10" departSpeed="4.88" departDelay="0.00" arrival="140.00" arrivalLane="4o_0" arrivalPos="488.65" arrivalSpeed="10.98" duration="97.00" routeLength="977.69" waitSteps="0" timeLoss="13.13" rerouteNo="0" devices="tripinfo_e2n_50" vType="stdSKVehicle" speedFactor="1.00" vaporized=""/>
    <tripinfo id="e2w_48" depart="42.00" departLane="2fi_1" departPos="5.10" departSpeed="9.62" departDelay="0.00" arrival="141.00" arrivalLane="1o_0" arrivalPos="488.65" arrivalSpeed="10.12" duration="99.00" routeLength="995.39" waitSteps="0" timeLoss="13.08" rerouteNo="0" devices="tripinfo_e2w_48" vType="stdSKVehicle" speedFactor="1.00" vaporized=""/>
    <tripinfo id="w2e_49" depart="43.00" departLane="1fi_0" departPos="5.10" departSpeed="2.00" departDelay="1.00" arrival="141.00" arrivalLane="2o_0" arrivalPos="488.65" arrivalSpeed="10.49" duration="98.00" routeLength="995.39" waitSteps="0" timeLoss="12.72" rerouteNo="0" devices="tripinfo_w2e_49" vType="stdSKVehicle" speedFactor="1.00" vaporized=""/>
    <tripinfo id="w2e_51" depart="43.00" departLane="1fi_1" departPos="5.10" departSpeed="5.44" departDelay="0.00" arrival="141.00" arrivalLane="2o_1" arrivalPos="488.65" arrivalSpeed="10.41" duration="98.00" routeLength="995.39" waitSteps="0" timeLoss="12.19" rerouteNo="0" devices="tripinfo_w2e_51" vType="stdSKVehicle" speedFactor="1.00" vaporized=""/>
    <tripinfo id="e2w_57" depart="48.00" departLane="2fi_0" departPos="5.10" departSpeed="5.09" departDelay="0.00" arrival="142.00" arrivalLane="1o_1" arrivalPos="488.65" arrivalSpeed="10.06" duration="94.00" routeLength="995.39" waitSteps="0" timeLoss="8.09" rerouteNo="0" devices="tripinfo_e2w_57" vType="stdSKVehicle" speedFactor="1.00" vaporized=""/>
    <tripinfo id="w2s_61" depart="51.00" departLane="1fi_1" departPos="5.10" departSpeed="0.01" departDelay="0.00" arrival="142.00" arrivalLane="3o_0" arrivalPos="488.65" arrivalSpeed="11.08" duration="91.00" routeLength="977.69" waitSteps="0" timeLoss="7.40" rerouteNo="0" devices="tripinfo_w2s_61" vType="stdSKVehicle" speedFactor="1.00" vaporized=""/>
    <tripinfo id="w2e_59" depart="50.00" departLane="1fi_0" departPos="5.10" departSpeed="2.68" departDelay="0.00" arrival="143.00" arrivalLane="2o_2" arrivalPos="488.65" arrivalSpeed="10.89" duration="93.00" routeLength="995.39" waitSteps="0" timeLoss="7.15" rerouteNo="0" devices="tripinfo_w2e_59" vType="stdSKVehicle" speedFactor="1.00" vaporized=""/>
    <tripinfo id="e2w_62" depart="53.00" departLane="2fi_0" departPos="5.10" departSpeed="9.51" departDelay="0.00" arrival="144.00" arrivalLane="1o_0" arrivalPos="488.65" arrivalSpeed="10.21" duration="91.00" routeLength="995.39" waitSteps="0" timeLoss="5.54" rerouteNo="0" devices="tripinfo_e2w_62" vType="stdSKVehicle" speedFactor="1.00" vaporized=""/>
    <tripinfo id="e2w_54" depart="47.00" departLane="2fi_0" departPos="5.10" departSpeed="7.62" departDelay="1.00" arrival="144.00" arrivalLane="1o_1" arrivalPos="488.65" arrivalSpeed="9.82" duration="97.00" routeLength="995.39" waitSteps="0" timeLoss="11.22" rerouteNo="0" devices="tripinfo_e2w_54" vType="stdSKVehicle" speedFactor="1.00" vaporized=""/>
    <tripinfo id="w2s_60" depart="53.00" departLane="1fi_0" departPos="5.10" departSpeed="3.44" departDelay="3.00" arrival="145.00" arrivalLane="3o_0" arrivalPos="488.65" arrivalSpeed="10.74" duration="92.00" routeLength="977.69" waitSteps="0" timeLoss="7.51" rerouteNo="0" devices="tripinfo_w2s_60" vType="stdSKVehicle" speedFactor="1.00" vaporized=""/>
    <tripinfo id="w2e_63" depart="54.00" departLane="1fi_1" departPos="5.10" departSpeed="1.72" departDelay="0.00" arrival="147.00" arrivalLane="2o_0" arrivalPos="488.65" arrivalSpeed="10.87" duration="93.00" routeLength="995.39" waitSteps="0" timeLoss="7.63" rerouteNo="0" devices="tripinfo_w2e_63" vType="stdSKVehicle" speedFactor="1.00" vaporized=""/>
    <tripinfo id="e2n_66" depart="57.00" departLane="2fi_1" departPos="5.10" departSpeed="7.93" departDelay="0.00" arrival="147.00" arrivalLane="4o_0" arrivalPos="488.65" arrivalSpeed="10.02" duration="90.00" routeLength="977.69" waitSteps="0" timeLoss="5.55" rerouteNo="0" devices="tripinfo_e2n_66" vType="stdSKVehicle" speedFactor="1.00" vaporized=""/>
    <tripinfo id="w2e_68" depart="58.00" departLane="1fi_1" departPos="5.10" departSpeed="9.08" departDelay="0.00" arrival="149.00" arrivalLane="2o_0" arrivalPos="488.65" arrivalSpeed="10.29" duration="91.00" routeLength="995.39" waitSteps="0" timeLoss="5.62" rerouteNo="0" devices="tripinfo_w2e_68" vType="stdSKVehicle" speedFactor="1.00" vaporized=""/>
    <tripinfo id="e2w_67" depart="58.00" departLane="2fi_1" departPos="5.10" departSpeed="0.24" departDelay="0.00" arrival="151.00" arrivalLane="1o_0" arrivalPos="488.65" arrivalSpeed="10.15" duration="93.00" routeLength="995.39" waitSteps="0" timeLoss="7.12" rerouteNo="0" devices="tripinfo_e2w_67" vType="stdSKVehicle" speedFactor="1.00" vaporized=""/>
    <tripinfo id="e2w_69" depart="61.00" departLane="2fi_0" departPos="5.10" departSpeed="8.02" departDelay="2.00" arrival="153.00" arrivalLane="1o_0" arrivalPos="488.65" arrivalSpeed="10.08" duration="92.00" routeLength="995.39" waitSteps="0" timeLoss="6.79" rerouteNo="0" devices="tripinfo_e2w_69" vType="stdSKVehicle" speedFactor="1.00" vaporized=""/>
    <tripinfo id="e2w_72" depart="61.00" departLane="2fi_1" departPos="5.10" departSpeed="5.01" departDelay="1.00" arrival="153.00" arrivalLane="1o_1" arrivalPos="488.65" arrivalSpeed="11.02" duration="92.00" routeLength="995.39" waitSteps="0" timeLoss="6.35" rerouteNo="0" devices="tripinfo_e2w_72" vType="stdSKVehicle" speedFactor="1.00" vaporized=""/>
    <tripinfo id="e2w_74" depart="63.00" departLane="2fi_0" departPos="5.10" departSpeed="1.17" departDelay="2.00" arrival="155.00" arrivalLane="1o_0" arrivalPos="488.65" arrivalSpeed="10.59" duration="92.00" routeLength="995.39" waitSteps="0" timeLoss="6.84" rerouteNo="0" devices="tripinfo_e2w_74" vType="stdSKVehicle" speedFactor="1.00" vaporized=""/>
    <tripinfo id="w2e_80" depart="64.00" departLane="1fi_1" departPos="5.10" departSpeed="1.70" departDelay="0.00" arrival="156.00" arrivalLane="2o_0" arrivalPos="488.65" arrivalSpeed="10.65" duration="92.00" routeLength="995.39" waitSteps="0" timeLoss="6.72" rerouteNo="0" devices="tripinfo_w2e_80" vType="stdSKVehicle" speedFactor="1.00" vaporized=""/>
    <tripinfo id="w2n_17" depart="14.00" departLane="1fi_1" departPos="5.10" departSpeed="6.58" departDelay="0.00" arrival="160.00" arrivalLane="4o_0" arrivalPos="488.65" arrivalSpeed="10.86" duration="146.00" routeLength="993.65" waitSteps="51" timeLoss="60.88" rerouteNo="0" devices="tripinfo_w2n_17" vType="stdSKVehicle" speedFactor="1.00" vaporized=""/>
    <tripinfo id="e2s_8" depart="9.00" departLane="2fi_0" departPos="5.10" departSpeed="7.42" departDelay="0.00" arrival="161.00" arrivalLane="3o_0" arrivalPos="488.65" arrivalSpeed="10.15" duration="152.00" routeLength="993.65" waitSteps="57" timeLoss="66.36" rerouteNo="0" devices="tripinfo_e2s_8" vType="stdSKVehicle" speedFactor="1.00" vaporized=""/>
    <tripinfo id="e2s_24" depart="19.00" departLane="2fi_1" departPos="5.10" departSpeed="5.29" departDelay="0.00" arrival="163.00" arrivalLane="3o_1" arrivalPos="488.65" arrivalSpeed="10.75" duration="144.00" routeLength="993.65" waitSteps="48" timeLoss="58.59" rerouteNo="0" devices="tripinfo_e2s_24" vType="stdSKVehicle" speedFactor="1.00" vaporized=""/>
    <tripinfo id="w2n_47" depart="41.00" departLane="1fi_1" departPos="5.10" departSpeed="5.74" departDelay="0.00" arrival="163.00" arrivalLane="4o_0" arrivalPos="488.65" arrivalSpeed="10.60" duration="122.00" routeLength="993.65" waitSteps="26" timeLoss="36.34" rerouteNo="0" devices="tripinfo_w2n_47" vType="stdSKVehicle" speedFactor="1.00" vaporized=""/>
    <tripinfo id="e2s_42" depart="37.00" departLane="2fi_0" departPos="5.10" departSpeed="4.77" departDelay="0.00" arrival="164.00" arrivalLane="3o_0" arrivalPos="488.65" arrivalSpeed="10.12" duration="127.00" routeLength="993.65" waitSteps="28" timeLoss="42.07" rerouteNo="0" devices="tripinfo_e2s_42" vType="stdSKVehicle" speedFactor="1.00" vaporized=""/>
    <tripinfo id="w2n_58" depart="48.00" departLane="1fi_0" departPos="5.10" departSpeed="5.35" departDelay="0.00" arrival="165.00" arrivalLane="4o_0" arrivalPos="488.65" arrivalSpeed="10.20" duration="117.00" routeLength="993.65" waitSteps="19" timeLoss="31.64" rerouteNo="0" devices="tripinfo_w2n_58" vType="stdSKVehicle" speedFactor="1.00" vaporized=""/>
    <tripinfo id="e2s_64" depart="55.00" departLane="2fi_0" departPos="5.10" departSpeed="9.89" departDelay="0.00" arrival="167.00" arrivalLane="3o_0" arrivalPos="488.65" arrivalSpeed="10.63" duration="112.00" routeLength="993.65" waitSteps="14" timeLoss="26.55" rerouteNo="0" devices="tripinfo_e2s_64" vType="stdSKVehicle" speedFactor="1.00" vaporized=""/>
    <tripinfo id="e2s_70" depart="60.00" departLane="2fi_0" departPos="5.10" departSpeed="10.90" departDelay="1.00" arrival="169.00" arrivalLane="3o_0" arrivalPos="488.65" arrivalSpeed="10.98" duration="109.00" routeLength="993.65" waitSteps="9" timeLoss="23.68" rerouteNo="0" devices="tripinfo_e2s_70" vType="stdSKVehicle" speedFactor="1.00" vaporized=""/>
    <tripinfo id="s2n_43" depart="38.00" departLane="3fi_0" departPos="5.10" departSpeed="7.60" departDelay="0.00" arrival="174.00" arrivalLane="4o_1" arrivalPos="488.65" arrivalSpeed="11.11" duration="136.00" routeLength="995.39" waitSteps="41" timeLoss="50.84" rerouteNo="0" devices="tripinfo_s2n_43" vType="stdSKVehicle" speedFactor="1.00" vaporized=""/>
    <tripinfo id="n2w_35" depart="30.00" departLane="4fi_0" departPos="5.10" departSpeed="10.88" departDelay="0.00" arrival="174.00" arrivalLane="1o_0" arrivalPos="488.65" arrivalSpeed="10.32" duration="144.00" routeLength="977.69" waitSteps="50" timeLoss="59.65" rerouteNo="0" devices="tripinfo_n2w_35" vType="stdSKVehicle" speedFactor="1.00" vaporized=""/>
    <tripinfo id="n2s_41" depart="37.00" departLane="4fi_0" departPos="5.10" departSpeed="4.25" departDelay="0.00" arrival="174.00" arrivalLane="3o_0" arrivalPos="488.65" arrivalSpeed="10.27" duration="137.00" routeLength="995.39" waitSteps="39" timeLoss="51.63" rerouteNo="0" devices="tripinfo_n2s_41" vType="stdSKVehicle" speedFactor="1.00" vaporized=""/>
    <tripinfo id="s2n_40" depart="36.00" departLane="3fi_1" departPos="5.10" departSpeed="10.82" departDelay="0.00" arrival="175.00" arrivalLane="4o_0" arrivalPos="488.65" arrivalSpeed="10.66" duration="139.00" routeLength="995.39" waitSteps="44" timeLoss="53.25" rerouteNo="0" devices="tripinfo_s2n_40" vType="stdSKVehicle" speedFactor="1.00" vaporized=""/>
    <tripinfo id="n2w_38" depart="36.00" departLane="4fi_1" departPos="5.10" departSpeed="4.71" departDelay="0.00" arrival="176.00" arrivalLane="1o_0" arrivalPos="488.65" arrivalSpeed="10.02" duration="140.00" routeLength="977.69" waitSteps="43" timeLoss="55.60" rerouteNo="0" devices="tripinfo_n2w_38" vType="stdSKVehicle" speedFactor="1.00" vaporized=""/>
    <tripinfo id="s2n_44" depart="39.00" departLane="3fi_1" departPos="5.10" departSpeed="1.29" departDelay="0.00" arrival="177.00" arrivalLane="4o_1" arrivalPos="488.65" arrivalSpeed="10.51" duration="138.00" routeLength="995.39" waitSteps="39" timeLoss="52.20" rerouteNo="0" devices="tripinfo_s2n_44" vType="stdSKVehicle" speedFactor="1.00" vaporized=""/>
    <tripinfo id="s2n_46" depart="43.00" departLane="3fi_0" departPos="5.10" departSpeed="0.60" departDelay="2.00" arrival="177.00" arrivalLane="4o_0" arrivalPos="488.65" arrivalSpeed="10.14" duration="134.00" routeLength="995.39" waitSteps="35" timeLoss="48.18" rerouteNo="0" devices="tripinfo_s2n_46" vType="stdSKVehicle" speedFactor="1.00" vaporized=""/>
    <tripinfo id="n2s_55" depart="47.00" departLane="4fi_0" departPos="5.10" departSpeed="8.12" departDelay="0.00" arrival="177.00" arrivalLane="3o_0" arrivalPos="488.65" arrivalSpeed="10.41" duration="130.00" routeLength="995.39" waitSteps="33" timeLoss="44.52" rerouteNo="0" devices="tripinfo_n2s_55" vType="stdSKVehicle" speedFactor="1.00" vaporized=""/>
    <tripinfo id="s2n_52" depart="45.00" departLane="3fi_1" departPos="5.10" departSpeed="8.21" departDelay="1.00" arrival="179.00" arrivalLane="4o_1" arrivalPos="488.65" arrivalSpeed="10.80" duration="134.00" routeLength="995.39" waitSteps="37" timeLoss="48.66" rerouteNo="0" devices="tripinfo_s2n_52" vType="stdSKVehicle" speedFactor="1.00" vaporized=""/>
    <tripinfo id="n2w_65" depart="57.00" departLane="4fi_0" departPos="5.10" departSpeed="3.63" departDelay="0.00" arrival="179.00" arrivalLane="1o_0" arrivalPos="488.65" arrivalSpeed="11.01" duration="122.00" routeLength="977.69" waitSteps="27" timeLoss="38.03" rerouteNo="0" devices="tripinfo_n2w_65" vType="stdSKVehicle" speedFactor="1.00" vaporized=""/>
    <tripinfo id="s2n_77" depart="62.00" departLane="3fi_0" departPos="5.10" departSpeed="9.33" departDelay="0.00" arrival="179.00" arrivalLane="4o_0" arrivalPos="488.65" arrivalSpeed="9.83" duration="117.00" routeLength="995.39" waitSteps="21" timeLoss="31.35" rerouteNo="0" devices="tripinfo_s2n_77" vType="stdSKVehicle" speedFactor="1.00" vaporized=""/>
    <tripinfo id="n2s_56" depart="48.00" departLane="4fi_1" departPos="5.10" departSpeed="0.43" departDelay="0.00" arrival="179.00" arrivalLane="3o_0" arrivalPos="488.65" arrivalSpeed="10.59" duration="131.00" routeLength="995.39" waitSteps="32" timeLoss="45.46" rerouteNo="0" devices="tripinfo_n2s_56" vType="stdSKVehicle" speedFactor="1.00" vaporized=""/>
    <tripinfo id="n2s_73" depart="61.00" departLane="4fi_0" departPos="5.10" departSpeed="8.87" departDelay="0.00" arrival="180.00" arrivalLane="3o_1" arrivalPos="488.65" arrivalSpeed="10.94" duration="119.00" routeLength="995.39" waitSteps="22" timeLoss="32.96" rerouteNo="0" devices="tripinfo_n2s_73" vType="stdSKVehicle" speedFactor="1.00" vaporized=""/>
    <tripinfo id="s2n_98" depart="79.00" departLane="3fi_1" departPos="5.10" departSpeed="0.95" departDelay="0.00" arrival="181.00" arrivalLane="4o_1" arrivalPos="488.65" arrivalSpeed="10.43" duration="102.00" routeLength="995.39" waitSteps="3" timeLoss="16.93" rerouteNo="0" devices="tripinfo_s2n_98" vType="stdSKVehicle" speedFactor="1.00" vaporized=""/>
    <tripinfo id="n2w_71" depart="60.00" departLane="4fi_1" departPos="5.10" departSpeed="2.05" departDelay="0.00" arrival="181.00" arrivalLane="1o_0" arrivalPos="488.65" arrivalSpeed="10.88" duration="121.00" routeLength="977.69" waitSteps="22" timeLoss="37.16" rerouteNo="0" devices="tripinfo_n2w_71" vType="stdSKVehicle" speedFactor="1.00" vaporized=""/>
    <tripinfo id="s2n_90" depart="73.00" departLane="3fi_0" departPos="5.10" departSpeed="6.70" departDelay="0.00" arrival="181.00" arrivalLane="4o_0" arrivalPos="488.65" arrivalSpeed="10.88" duration="108.00" routeLength="995.39" waitSteps="10" timeLoss="22.56" rerouteNo="0" devices="tripinfo_s2n_90" vType="stdSKVehicle" speedFactor="1.00" vaporized=""/>
    <tripinfo id="n2s_78" depart="63.00" departLane="4fi_1" departPos="5.10" departSpeed="4.90" departDelay="0.00" arrival="181.00" arrivalLane="3o_0" arrivalPos="488.65" arrivalSpeed="10.61" duration="118.00" routeLength="995.39" waitSteps="19" timeLoss="32.76" rerouteNo="0" devices="tripinfo_n2s_78" vType="stdSKVehicle" speedFactor="1.00" vaporized=""/>
    <tripinfo id="s2n_101" depart="82.00" departLane="3fi_0" departPos="5.10" departSpeed="7.52" departDelay="0.00" arrival="183.00" arrivalLane="4o_2" arrivalPos="488.65" arrivalSpeed="10.08" duration="101.00" routeLength="995.39" waitSteps="0" timeLoss="15.67" rerouteNo="0" devices="tripinfo_s2n_101" vType="stdSKVehicle" speedFactor="1.00" vaporized=""/>
    <tripinfo id="s2n_99" depart="80.00" departLane="3fi_0" departPos="5.10" departSpeed="4.42" departDelay="0.00" arrival="183.00" arrivalLane="4o_0" arrivalPos="488.65" arrivalSpeed="10.06" duration="103.00" routeLength="995.39" waitSteps="3" timeLoss="17.65" rerouteNo="0" devices="tripinfo_s2n_99" vType="stdSKVehicle" speedFactor="1.00" vaporized=""/>