<?xml version="1.0" encoding="UTF-8"?>

<!-- generated on 2019.3.21 16:41:21 by SUMO gui Version 0.32.0
<?xml version="1.0" encoding="UTF-8"?>

<configuration xmlns:xsi="http://www.w3.org/2001/XMLSchema-instance" xsi:noNamespaceSchemaLocation="http://sumo.dlr.de/xsd/sumoConfiguration.xsd">

    <input>
        <net-file value="data/net.net.xml"/>
        <route-files value="data/net.rou.xml"/>
    </input>

    <time>
        <begin value="0"/>
    </time>

    <report>
        <verbose value="true"/>
        <no-step-log value="true"/>
    </report>

    <traci_server>
        <remote-port value="52310"/>
    </traci_server>

</configuration>
-->

<detector xmlns:xsi="http://www.w3.org/2001/XMLSchema-instance" xsi:noNamespaceSchemaLocation="http://sumo.dlr.de/xsd/det_e1_file.xsd">
    <interval begin="0.00" end="300.00" id="TLS0_my_program_InductLoopOn_4si_0" nVehContrib="30" flow="360.00" occupancy="33.30" speed="9.75" length="5.00" nVehEntered="32"/>
    <interval begin="0.00" end="300.00" id="TLS0_my_program_InductLoopOn_4si_1" nVehContrib="20" flow="240.00" occupancy="27.61" speed="8.41" length="5.00" nVehEntered="20"/>
    <interval begin="0.00" end="300.00" id="TLS0_my_program_InductLoopOn_4si_2" nVehContrib="7" flow="84.00" occupancy="15.68" speed="8.57" length="5.00" nVehEntered="7"/>
    <interval begin="0.00" end="300.00" id="TLS0_my_program_InductLoopOn_2si_0" nVehContrib="44" flow="528.00" occupancy="39.67" speed="10.40" length="5.00" nVehEntered="46"/>
    <interval begin="0.00" end="300.00" id="TLS0_my_program_InductLoopOn_2si_1" nVehContrib="26" flow="312.00" occupancy="34.22" speed="8.33" length="5.00" nVehEntered="26"/>
    <interval begin="0.00" end="300.00" id="TLS0_my_program_InductLoopOn_2si_2" nVehContrib="15" flow="180.00" occupancy="23.30" speed="7.98" length="5.00" nVehEntered="15"/>
    <interval begin="0.00" end="300.00" id="TLS0_my_program_InductLoopOn_3si_0" nVehContrib="22" flow="264.00" occupancy="21.34" speed="9.70" length="5.00" nVehEntered="25"/>
    <interval begin="0.00" end="300.00" id="TLS0_my_program_InductLoopOn_3si_1" nVehContrib="12" flow="144.00" occupancy="14.21" speed="7.11" length="5.00" nVehEntered="12"/>
    <interval begin="0.00" end="300.00" id="TLS0_my_program_InductLoopOn_3si_2" nVehContrib="7" flow="84.00" occupancy="1.12" speed="10.94" length="5.00" nVehEntered="7"/>
    <interval begin="0.00" end="300.00" id="TLS0_my_program_InductLoopOn_1si_0" nVehContrib="37" flow="444.00" occupancy="50.72" speed="9.93" length="5.00" nVehEntered="38"/>
    <interval begin="0.00" end="300.00" id="TLS0_my_program_InductLoopOn_1si_1" nVehContrib="28" flow="336.00" occupancy="50.80" speed="8.58" length="5.00" nVehEntered="28"/>
    <interval begin="0.00" end="300.00" id="TLS0_my_program_InductLoopOn_1si_2" nVehContrib="16" flow="192.00" occupancy="24.10" speed="8.90" length="5.00" nVehEntered="16"/>
    <interval begin="300.00" end="600.00" id="TLS0_my_program_InductLoopOn_4si_0" nVehContrib="24" flow="288.00" occupancy="69.13" speed="7.99" length="5.00" nVehEntered="24"/>
    <interval begin="300.00" end="600.00" id="TLS0_my_program_InductLoopOn_4si_1" nVehContrib="20" flow="240.00" occupancy="58.62" speed="6.89" length="5.00" nVehEntered="20"/>
    <interval begin="300.00" end="600.00" id="TLS0_my_program_InductLoopOn_4si_2" nVehContrib="15" flow="180.00" occupancy="39.90" speed="8.09" length="5.00" nVehEntered="15"/>
    <interval begin="300.00" end="600.00" id="TLS0_my_program_InductLoopOn_2si_0" nVehContrib="51" flow="612.00" occupancy="48.39" speed="10.11" length="5.00" nVehEntered="56"/>
    <interval begin="300.00" end="600.00" id="TLS0_my_program_InductLoopOn_2si_1" nVehContrib="44" flow="528.00" occupancy="45.96" speed="9.02" length="5.00" nVehEntered="45"/>
    <interval begin="300.00" end="600.00" id="TLS0_my_program_InductLoopOn_2si_2" nVehContrib="19" flow="228.00" occupancy="24.93" speed="9.03" length="5.00" nVehEntered="19"/>
    <interval begin="300.00" end="600.00" id="TLS0_my_program_InductLoopOn_3si_0" nVehContrib="31" flow="372.00" occupancy="41.79" speed="8.83" length="5.00" nVehEntered="31"/>
    <interval begin="300.00" end="600.00" id="TLS0_my_program_InductLoopOn_3si_1" nVehContrib="17" flow="204.00" occupancy="33.21" speed="7.06" length="5.00" nVehEntered="17"/>
    <interval begin="300.00" end="600.00" id="TLS0_my_program_InductLoopOn_3si_2" nVehContrib="9" flow="108.00" occupancy="16.18" speed="9.49" length="5.00" nVehEntered="9"/>
    <interval begin="300.00" end="600.00" id="TLS0_my_program_InductLoopOn_1si_0" nVehContrib="59" flow="708.00" occupancy="52.02" speed="9.94" length="5.00" nVehEntered="63"/>
    <interval begin="300.00" end="600.00" id="TLS0_my_program_InductLoopOn_1si_1" nVehContrib="50" flow="600.00" occupancy="48.77" speed="9.23" length="5.00" nVehEntered="51"/>
    <interval begin="300.00" end="600.00" id="TLS0_my_program_InductLoopOn_1si_2" nVehContrib="20" flow="240.00" occupancy="41.37" speed="8.57" length="5.00" nVehEntered="20"/>
    <interval begin="600.00" end="900.00" id="TLS0_my_program_InductLoopOn_4si_0" nVehContrib="23" flow="276.00" occupancy="36.92" speed="9.81" length="5.00" nVehEntered="25"/>
    <interval begin="600.00" end="900.00" id="TLS0_my_program_InductLoopOn_4si_1" nVehContrib="14" flow="168.00" occupancy="28.31" speed="7.76" length="5.00" nVehEntered="15"/>
    <interval begin="600.00" end="900.00" id="TLS0_my_program_InductLoopOn_4si_2" nVehContrib="11" flow="132.00" occupancy="12.90" speed="10.00" length="5.00" nVehEntered="11"/>
    <interval begin="600.00" end="900.00" id="TLS0_my_program_InductLoopOn_2si_0" nVehContrib="51" flow="612.00" occupancy="56.57" speed="9.49" length="5.00" nVehEntered="55"/>
    <interval begin="600.00" end="900.00" id="TLS0_my_program_InductLoopOn_2si_1" nVehContrib="44" flow="528.00" occupancy="52.48" speed="8.12" length="5.00" nVehEntered="44"/>
    <interval begin="600.00" end="900.00" id="TLS0_my_program_InductLoopOn_2si_2" nVehContrib="23" flow="276.00" occupancy="51.62" speed="7.72" length="5.00" nVehEntered="23"/>
    <interval begin="600.00" end="900.00" id="TLS0_my_program_InductLoopOn_3si_0" nVehContrib="26" flow="312.00" occupancy="59.45" speed="9.05" length="5.00" nVehEntered="29"/>
    <interval begin="600.00" end="900.00" id="TLS0_my_program_InductLoopOn_3si_1" nVehContrib="25" flow="300.00" occupancy="45.42" speed="8.27" length="5.00" nVehEntered="26"/>
    <interval begin="600.00" end="900.00" id="TLS0_my_program_InductLoopOn_3si_2" nVehContrib="8" flow="96.00" occupancy="12.56" speed="9.92" length="5.00" nVehEntered="9"/>
    <interval begin="600.00" end="900.00" id="TLS0_my_program_InductLoopOn_1si_0" nVehContrib="50" flow="600.00" occupancy="52.88" speed="9.90" length="5.00" nVehEntered="52"/>
    <interval begin="600.00" end="900.00" id="TLS0_my_program_InductLoopOn_1si_1" nVehContrib="44" flow="528.00" occupancy="48.80" speed="8.83" length="5.00" nVehEntered="44"/>
    <interval begin="600.00" end="900.00" id="TLS0_my_program_InductLoopOn_1si_2" nVehContrib="20" flow="240.00" occupancy="43.56" speed="8.68" length="5.00" nVehEntered="20"/>
    <interval begin="900.00" end="1200.00" id="TLS0_my_program_InductLoopOn_4si_0" nVehContrib="25" flow="300.00" occupancy="41.64" speed="8.59" length="5.00" nVehEntered="30"/>
    <interval begin="900.00" end="1200.00" id="TLS0_my_program_InductLoopOn_4si_1" nVehContrib="19" flow="228.00" occupancy="34.39" speed="5.73" length="5.00" nVehEntered="18"/>
    <interval begin="900.00" end="1200.00" id="TLS0_my_program_InductLoopOn_4si_2" nVehContrib="13" flow="156.00" occupancy="35.24" speed="8.24" length="5.00" nVehEntered="13"/>
    <interval begin="900.00" end="1200.00" id="TLS0_my_program_InductLoopOn_2si_0" nVehContrib="47" flow="564.00" occupancy="68.05" speed="9.72" length="5.00" nVehEntered="48"/>
    <interval begin="900.00" end="1200.00" id="TLS0_my_program_InductLoopOn_2si_1" nVehContrib="42" flow="504.00" occupancy="65.31" speed="8.58" length="5.00" nVehEntered="41"/>
    <interval begin="900.00" end="1200.00" id="TLS0_my_program_InductLoopOn_2si_2" nVehContrib="20" flow="240.00" occupancy="42.83" speed="9.19" length="5.00" nVehEntered="20"/>
    <interval begin="900.00" end="1200.00" id="TLS0_my_program_InductLoopOn_3si_0" nVehContrib="26" flow="312.00" occupancy="38.55" speed="9.12" length="5.00" nVehEntered="26"/>
    <interval begin="900.00" end="1200.00" id="TLS0_my_program_InductLoopOn_3si_1" nVehContrib="15" flow="180.00" occupancy="25.21" speed="6.23" length="5.00" nVehEntered="15"/>
    <interval begin="900.00" end="1200.00" id="TLS0_my_program_InductLoopOn_3si_2" nVehContrib="16" flow="192.00" occupancy="27.34" speed="8.01" length="5.00" nVehEntered="15"/>
    <interval begin="900.00" end="1200.00" id="TLS0_my_program_InductLoopOn_1si_0" nVehContrib="45" flow="540.00" occupancy="65.00" speed="9.44" length="5.00" nVehEntered="45"/>
    <interval begin="900.00" end="1200.00" id="TLS0_my_program_InductLoopOn_1si_1" nVehContrib="44" flow="528.00" occupancy="60.55" speed="9.24" length="5.00" nVehEntered="43"/>
    <interval begin="900.00" end="1200.00" id="TLS0_my_program_InductLoopOn_1si_2" nVehContrib="15" flow="180.00" occupancy="19.95" speed="8.44" length="5.00" nVehEntered="15"/>
    <interval begin="1200.00" end="1500.00" id="TLS0_my_program_InductLoopOn_4si_0" nVehContrib="27" flow="324.00" occupancy="48.63" speed="8.11" length="5.00" nVehEntered="28"/>
    <interval begin="1200.00" end="1500.00" id="TLS0_my_program_InductLoopOn_4si_1" nVehContrib="19" flow="228.00" occupancy="32.21" speed="6.73" length="5.00" nVehEntered="19"/>
    <interval begin="1200.00" end="1500.00" id="TLS0_my_program_InductLoopOn_4si_2" nVehContrib="15" flow="180.00" occupancy="35.49" speed="7.35" length="5.00" nVehEntered="15"/>
    <interval begin="1200.00" end="1500.00" id="TLS0_my_program_InductLoopOn_2si_0" nVehContrib="53" flow="636.00" occupancy="56.91" speed="9.99" length="5.00" nVehEntered="57"/>
    <interval begin="1200.00" end="1500.00" id="TLS0_my_program_InductLoopOn_2si_1" nVehContrib="47" flow="564.00" occupancy="58.07" speed="9.09" length="5.00" nVehEntered="48"/>
    <interval begin="1200.00" end="1500.00" id="TLS0_my_program_InductLoopOn_2si_2" nVehContrib="21" flow="252.00" occupancy="51.19" speed="7.87" length="5.00" nVehEntered="21"/>
    <interval begin="1200.00" end="1500.00" id="TLS0_my_program_InductLoopOn_3si_0" nVehContrib="28" flow="336.00" occupancy="56.05" speed="8.60" length="5.00" nVehEntered="28"/>
    <interval begin="1200.00" end="1500.00" id="TLS0_my_program_InductLoopOn_3si_1" nVehContrib="20" flow="240.00" occupancy="47.53" speed="6.78" length="5.00" nVehEntered="19"/>
    <interval begin="1200.00" end="1500.00" id="TLS0_my_program_InductLoopOn_3si_2" nVehContrib="8" flow="96.00" occupancy="14.71" speed="8.44" length="5.00" nVehEntered="8"/>
    <interval begin="1200.00" end="1500.00" id="TLS0_my_program_InductLoopOn_1si_0" nVehContrib="48" flow="576.00" occupancy="50.92" speed="10.28" length="5.00" nVehEntered="52"/>
    <interval begin="1200.00" end="1500.00" id="TLS0_my_program_InductLoopOn_1si_1" nVehContrib="39" flow="468.00" occupancy="45.58" speed="9.01" length="5.00" nVehEntered="40"/>
    <interval begin="1200.00" end="1500.00" id="TLS0_my_program_InductLoopOn_1si_2" nVehContrib="18" flow="216.00" occupancy="37.93" speed="8.26" length="5.00" nVehEntered="19"/>
    <interval begin="1500.00" end="1800.00" id="TLS0_my_program_InductLoopOn_4si_0" nVehContrib="20" flow="240.00" occupancy="59.67" speed="8.31" length="5.00" nVehEntered="22"/>
    <interval begin="1500.00" end="1800.00" id="TLS0_my_program_InductLoopOn_4si_1" nVehContrib="19" flow="228.00" occupancy="41.06" speed="7.84" length="5.00" nVehEntered="20"/>
    <interval begin="1500.00" end="1800.00" id="TLS0_my_program_InductLoopOn_4si_2" nVehContrib="7" flow="84.00" occupancy="1.47" speed="9.64" length="5.00" nVehEntered="7"/>
    <interval begin="1500.00" end="1800.00" id="TLS0_my_program_InductLoopOn_2si_0" nVehContrib="63" flow="756.00" occupancy="44.78" speed="10.58" length="5.00" nVehEntered="64"/>
    <interval begin="1500.00" end="1800.00" id="TLS0_my_program_InductLoopOn_2si_1" nVehContrib="42" flow="504.00" occupancy="41.15" speed="9.17" length="5.00" nVehEntered="42"/>
    <interval begin="1500.00" end="1800.00" id="TLS0_my_program_InductLoopOn_2si_2" nVehContrib="18" flow="216.00" occupancy="36.47" speed="7.67" length="5.00" nVehEntered="18"/>
    <interval begin="1500.00" end="1800.00" id="TLS0_my_program_InductLoopOn_3si_0" nVehContrib="21" flow="252.00" occupancy="47.12" speed="8.87" length="5.00" nVehEntered="23"/>
    <interval begin="1500.00" end="1800.00" id="TLS0_my_program_InductLoopOn_3si_1" nVehContrib="17" flow="204.00" occupancy="31.67" speed="7.78" length="5.00" nVehEntered="18"/>
    <interval begin="1500.00" end="1800.00" id="TLS0_my_program_InductLoopOn_3si_2" nVehContrib="12" flow="144.00" occupancy="20.58" speed="7.72" length="5.00" nVehEntered="12"/>
    <interval begin="1500.00" end="1800.00" id="TLS0_my_program_InductLoopOn_1si_0" nVehContrib="61" flow="732.00" occupancy="50.32" speed="10.23" length="5.00" nVehEntered="62"/>
    <interval begin="1500.00" end="1800.00" id="TLS0_my_program_InductLoopOn_1si_1" nVehContrib="41" flow="492.00" occupancy="40.92" speed="8.59" length="5.00" nVehEntered="41"/>
    <interval begin="1500.00" end="1800.00" id="TLS0_my_program_InductLoopOn_1si_2" nVehContrib="23" flow="276.00" occupancy="63.91" speed="7.47" length="5.00" nVehEntered="22"/>
    <interval begin="1800.00" end="2100.00" id="TLS0_my_program_InductLoopOn_4si_0" nVehContrib="32" flow="384.00" occupancy="38.20" speed="9.25" length="5.00" nVehEntered="33"/>
    <interval begin="1800.00" end="2100.00" id="TLS0_my_program_InductLoopOn_4si_1" nVehContrib="19" flow="228.00" occupancy="29.54" speed="6.96" length="5.00" nVehEntered="19"/>
    <interval begin="1800.00" end="2100.00" id="TLS0_my_program_InductLoopOn_4si_2" nVehContrib="14" flow="168.00" occupancy="32.80" speed="6.82" length="5.00" nVehEntered="14"/>
    <interval begin="1800.00" end="2100.00" id="TLS0_my_program_InductLoopOn_2si_0" nVehContrib="50" flow="600.00" occupancy="61.51" speed="10.13" length="5.00" nVehEntered="53"/>
    <interval begin="1800.00" end="2100.00" id="TLS0_my_program_InductLoopOn_2si_1" nVehContrib="45" flow="540.00" occupancy="57.62" speed="8.73" length="5.00" nVehEntered="44"/>
    <interval begin="1800.00" end="2100.00" id="TLS0_my_program_InductLoopOn_2si_2" nVehContrib="14" flow="168.00" occupancy="36.49" speed="9.27" length="5.00" nVehEntered="15"/>
    <interval begin="1800.00" end="2100.00" id="TLS0_my_program_InductLoopOn_3si_0" nVehContrib="32" flow="384.00" occupancy="46.34" speed="8.52" length="5.00" nVehEntered="32"/>
    <interval begin="1800.00" end="2100.00" id="TLS0_my_program_InductLoopOn_3si_1" nVehContrib="21" flow="252.00" occupancy="29.74" speed="6.93" length="5.00" nVehEntered="20"/>
    <interval begin="1800.00" end="2100.00" id="TLS0_my_program_InductLoopOn_3si_2" nVehContrib="7" flow="84.00" occupancy="0.99" speed="12.08" length="5.00" nVehEntered="7"/>
    <interval begin="1800.00" end="2100.00" id="TLS0_my_program_InductLoopOn_1si_0" nVehContrib="48" flow="576.00" occupancy="66.34" speed="9.94" length="5.00" nVehEntered="48"/>
    <interval begin="1800.00" end="2100.00" id="TLS0_my_program_InductLoopOn_1si_1" nVehContrib="39" flow="468.00" occupancy="62.71" speed="9.08" length="5.00" nVehEntered="38"/>
    <interval begin="1800.00" end="2100.00" id="TLS0_my_program_InductLoopOn_1si_2" nVehContrib="22" flow="264.00" occupancy="35.64" speed="8.54" length="5.00" nVehEntered="23"/>
    <interval begin="2100.00" end="2400.00" id="TLS0_my_program_InductLoopOn_4si_0" nVehContrib="24" flow="288.00" occupancy="32.39" speed="9.10" length="5.00" nVehEntered="26"/>
    <interval begin="2100.00" end="2400.00" id="TLS0_my_program_InductLoopOn_4si_1" nVehContrib="15" flow="180.00" occupancy="25.69" speed="6.81" length="5.00" nVehEntered="15"/>
    <interval begin="2100.00" end="2400.00" id="TLS0_my_program_InductLoopOn_4si_2" nVehContrib="10" flow="120.00" occupancy="20.26" speed="9.89" length="5.00" nVehEntered="10"/>
    <interval begin="2100.00" end="2400.00" id="TLS0_my_program_InductLoopOn_2si_0" nVehContrib="52" flow="624.00" occupancy="58.48" speed="9.77" length="5.00" nVehEntered="52"/>
    <interval begin="2100.00" end="2400.00" id="TLS0_my_program_InductLoopOn_2si_1" nVehContrib="41" flow="492.00" occupancy="43.67" speed="8.76" length="5.00" nVehEntered="41"/>
    <interval begin="2100.00" end="2400.00" id="TLS0_my_program_InductLoopOn_2si_2" nVehContrib="16" flow="192.00" occupancy="17.57" speed="7.85" length="5.00" nVehEntered="15"/>
    <interval begin="2100.00" end="2400.00" id="TLS0_my_program_InductLoopOn_3si_0" nVehContrib="29" flow="348.00" occupancy="44.29" speed="8.49" length="5.00" nVehEntered="33"/>
    <interval begin="2100.00" end="2400.00" id="TLS0_my_program_InductLoopOn_3si_1" nVehContrib="23" flow="276.00" occupancy="31.85" speed="7.34" length="5.00" nVehEntered="23"/>
    <interval begin="2100.00" end="2400.00" id="TLS0_my_program_InductLoopOn_3si_2" nVehContrib="7" flow="84.00" occupancy="15.83" speed="9.46" length="5.00" nVehEntered="8"/>
    <interval begin="2100.00" end="2400.00" id="TLS0_my_program_InductLoopOn_1si_0" nVehContrib="50" flow="600.00" occupancy="50.20" speed="9.81" length="5.00" nVehEntered="52"/>
    <interval begin="2100.00" end="2400.00" id="TLS0_my_program_InductLoopOn_1si_1" nVehContrib="35" flow="420.00" occupancy="41.08" speed="8.20" length="5.00" nVehEntered="36"/>
    <interval begin="2100.00" end="2400.00" id="TLS0_my_program_InductLoopOn_1si_2" nVehContrib="23" flow="276.00" occupancy="31.07" speed="8.03" length="5.00" nVehEntered="22"/>
    <interval begin="2400.00" end="2700.00" id="TLS0_my_program_InductLoopOn_4si_0" nVehContrib="28" flow="336.00" occupancy="32.56" speed="9.51" length="5.00" nVehEntered="29"/>
    <interval begin="2400.00" end="2700.00" id="TLS0_my_program_InductLoopOn_4si_1" nVehContrib="20" flow="240.00" occupancy="18.16" speed="8.03" length="5.00" nVehEntered="19"/>
    <interval begin="2400.00" end="2700.00" id="TLS0_my_program_InductLoopOn_4si_2" nVehContrib="6" flow="72.00" occupancy="0.83" speed="12.17" length="5.00" nVehEntered="6"/>
    <interval begin="2400.00" end="2700.00" id="TLS0_my_program_InductLoopOn_2si_0" nVehContrib="46" flow="552.00" occupancy="57.11" speed="9.90" length="5.00" nVehEntered="49"/>
    <interval begin="2400.00" end="2700.00" id="TLS0_my_program_InductLoopOn_2si_1" nVehContrib="38" flow="456.00" occupancy="53.94" speed="8.60" length="5.00" nVehEntered="39"/>
    <interval begin="2400.00" end="2700.00" id="TLS0_my_program_InductLoopOn_2si_2" nVehContrib="19" flow="228.00" occupancy="12.49" speed="8.24" length="5.00" nVehEntered="19"/>
    <interval begin="2400.00" end="2700.00" id="TLS0_my_program_InductLoopOn_3si_0" nVehContrib="30" flow="360.00" occupancy="41.76" speed="8.50" length="5.00" nVehEntered="32"/>
    <interval begin="2400.00" end="2700.00" id="TLS0_my_program_InductLoopOn_3si_1" nVehContrib="19" flow="228.00" occupancy="25.04" speed="6.00" length="5.00" nVehEntered="19"/>
    <interval begin="2400.00" end="2700.00" id="TLS0_my_program_InductLoopOn_3si_2" nVehContrib="11" flow="132.00" occupancy="36.22" speed="6.63" length="5.00" nVehEntered="10"/>
    <interval begin="2400.00" end="2700.00" id="TLS0_my_program_InductLoopOn_1si_0" nVehContrib="52" flow="624.00" occupancy="59.57" speed="10.21" length="5.00" nVehEntered="55"/>
    <interval begin="2400.00" end="2700.00" id="TLS0_my_program_InductLoopOn_1si_1" nVehContrib="44" flow="528.00" occupancy="53.56" speed="8.86" length="5.00" nVehEntered="43"/>
    <interval begin="2400.00" end="2700.00" id="TLS0_my_program_InductLoopOn_1si_2" nVehContrib="18" flow="216.00" occupancy="35.33" speed="8.19" length="5.00" nVehEntered="19"/>
    <interval begin="2700.00" end="3000.00" id="TLS0_my_program_InductLoopOn_4si_0" nVehContrib="25" flow="300.00" occupancy="56.82" speed="7.93" length="5.00" nVehEntered="27"/>
    <interval begin="2700.00" end="3000.00" id="TLS0_my_program_InductLoopOn_4si_1" nVehContrib="19" flow="228.00" occupancy="49.93" speed="6.47" length="5.00" nVehEntered="19"/>
    <interval begin="2700.00" end="3000.00" id="TLS0_my_program_InductLoopOn_4si_2" nVehContrib="4" flow="48.00" occupancy="0.56" speed="12.21" length="5.00" nVehEntered="4"/>
    <interval begin="2700.00" end="3000.00" id="TLS0_my_program_InductLoopOn_2si_0" nVehContrib="49" flow="588.00" occupancy="43.84" speed="10.28" length="5.00" nVehEntered="54"/>
    <interval begin="2700.00" end="3000.00" id="TLS0_my_program_InductLoopOn_2si_1" nVehContrib="40" flow="480.00" occupancy="44.46" speed="8.99" length="5.00" nVehEntered="40"/>
    <interval begin="2700.00" end="3000.00" id="TLS0_my_program_InductLoopOn_2si_2" nVehContrib="18" flow="216.00" occupancy="44.80" speed="8.43" length="5.00" nVehEntered="18"/>
    <interval begin="2700.00" end="3000.00" id="TLS0_my_program_InductLoopOn_3si_0" nVehContrib="30" flow="360.00" occupancy="57.49" speed="8.46" length="5.00" nVehEntered="31"/>
    <interval begin="2700.00" end="3000.00" id="TLS0_my_program_InductLoopOn_3si_1" nVehContrib="24" flow="288.00" occupancy="47.52" speed="7.11" length="5.00" nVehEntered="24"/>
    <interval begin="2700.00" end="3000.00" id="TLS0_my_program_InductLoopOn_3si_2" nVehContrib="8" flow="96.00" occupancy="6.83" speed="8.58" length="5.00" nVehEntered="9"/>
    <interval begin="2700.00" end="3000.00" id="TLS0_my_program_InductLoopOn_1si_0" nVehContrib="55" flow="660.00" occupancy="50.25" speed="10.27" length="5.00" nVehEntered="58"/>
    <interval begin="2700.00" end="3000.00" id="TLS0_my_program_InductLoopOn_1si_1" nVehContrib="40" flow="480.00" occupancy="43.32" speed="9.07" length="5.00" nVehEntered="41"/>
    <interval begin="2700.00" end="3000.00" id="TLS0_my_program_InductLoopOn_1si_2" nVehContrib="30" flow="360.00" occupancy="38.08" speed="8.96" length="5.00" nVehEntered="29"/>
    <interval begin="3000.00" end="3300.00" id="TLS0_my_program_InductLoopOn_4si_0" nVehContrib="23" flow="276.00" occupancy="56.62" speed="8.53" length="5.00" nVehEntered="25"/>
    <interval begin="3000.00" end="3300.00" id="TLS0_my_program_InductLoopOn_4si_1" nVehContrib="19" flow="228.00" occupancy="39.60" speed="8.14" length="5.00" nVehEntered="20"/>
    <interval begin="3000.00" end="3300.00" id="TLS0_my_program_InductLoopOn_4si_2" nVehContrib="12" flow="144.00" occupancy="13.40" speed="9.67" length="5.00" nVehEntered="13"/>
    <interval begin="3000.00" end="3300.00" id="TLS0_my_program_InductLoopOn_2si_0" nVehContrib="61" flow="732.00" occupancy="51.45" speed="10.22" length="5.00" nVehEntered="62"/>
    <interval begin="3000.00" end="3300.00" id="TLS0_my_program_InductLoopOn_2si_1" nVehContrib="41" flow="492.00" occupancy="47.02" speed="8.51" length="5.00" nVehEntered="40"/>
    <interval begin="3000.00" end="3300.00" id="TLS0_my_program_InductLoopOn_2si_2" nVehContrib="19" flow="228.00" occupancy="55.90" speed="7.94" length="5.00" nVehEntered="20"/>
    <interval begin="3000.00" end="3300.00" id="TLS0_my_program_InductLoopOn_3si_0" nVehContrib="21" flow="252.00" occupancy="49.97" speed="8.48" length="5.00" nVehEntered="24"/>
    <interval begin="3000.00" end="3300.00" id="TLS0_my_program_InductLoopOn_3si_1" nVehContrib="14" flow="168.00" occupancy="35.18" speed="6.63" length="5.00" nVehEntered="15"/>
    <interval begin="3000.00" end="3300.00" id="TLS0_my_program_InductLoopOn_3si_2" nVehContrib="15" flow="180.00" occupancy="31.94" speed="8.51" length="5.00" nVehEntered="14"/>
    <interval begin="3000.00" end="3300.00" id="TLS0_my_program_InductLoopOn_1si_0" nVehContrib="57" flow="684.00" occupancy="54.15" speed="9.89" length="5.00" nVehEntered="60"/>
    <interval begin="3000.00" end="3300.00" id="TLS0_my_program_InductLoopOn_1si_1" nVehContrib="43" flow="516.00" occupancy="51.10" speed="8.80" length="5.00" nVehEntered="42"/>
    <interval begin="3000.00" end="3300.00" id="TLS0_my_program_InductLoopOn_1si_2" nVehContrib="16" flow="192.00" occupancy="20.66" speed="7.44" length="5.00" nVehEntered="17"/>
    <interval begin="3300.00" end="3600.00" id="TLS0_my_program_InductLoopOn_4si_0" nVehContrib="34" flow="408.00" occupancy="57.92" speed="9.21" length="5.00" nVehEntered="34"/>
    <interval begin="3300.00" end="3600.00" id="TLS0_my_program_InductLoopOn_4si_1" nVehContrib="27" flow="324.00" occupancy="53.99" speed="7.75" length="5.00" nVehEntered="26"/>
    <interval begin="3300.00" end="3600.00" id="TLS0_my_program_InductLoopOn_4si_2" nVehContrib="13" flow="156.00" occupancy="44.45" speed="7.65" length="5.00" nVehEntered="13"/>
    <interval begin="3300.00" end="3600.00" id="TLS0_my_program_InductLoopOn_2si_0" nVehContrib="46" flow="552.00" occupancy="71.75" speed="9.70" length="5.00" nVehEntered="49"/>
    <interval begin="3300.00" end="3600.00" id="TLS0_my_program_InductLoopOn_2si_1" nVehContrib="45" flow="540.00" occupancy="69.01" speed="9.01" length="5.00" nVehEntered="46"/>
    <interval begin="3300.00" end="3600.00" id="TLS0_my_program_InductLoopOn_2si_2" nVehContrib="23" flow="276.00" occupancy="40.89" speed="8.58" length="5.00" nVehEntered="22"/>
    <interval begin="3300.00" end="3600.00" id="TLS0_my_program_InductLoopOn_3si_0" nVehContrib="37" flow="444.00" occupancy="60.96" speed="9.43" length="5.00" nVehEntered="37"/>
    <interval begin="3300.00" end="3600.00" id="TLS0_my_program_InductLoopOn_3si_1" nVehContrib="23" flow="276.00" occupancy="54.70" speed="7.34" length="5.00" nVehEntered="22"/>
    <interval begin="3300.00" end="3600.00" id="TLS0_my_program_InductLoopOn_3si_2" nVehContrib="9" flow="108.00" occupancy="28.40" speed="8.11" length="5.00" nVehEntered="9"/>
    <interval begin="3300.00" end="3600.00" id="TLS0_my_program_InductLoopOn_1si_0" nVehContrib="40" flow="480.00" occupancy="60.33" speed="9.52" length="5.00" nVehEntered="42"/>
    <interval begin="3300.00" end="3600.00" id="TLS0_my_program_InductLoopOn_1si_1" nVehContrib="36" flow="432.00" occupancy="54.85" speed="8.90" length="5.00" nVehEntered="37"/>
    <interval begin="3300.00" end="3600.00" id="TLS0_my_program_InductLoopOn_1si_2" nVehContrib="19" flow="228.00" occupancy="33.73" speed="9.35" length="5.00" nVehEntered="18"/>
    <interval begin="3600.00" end="3774.00" id="TLS0_my_program_InductLoopOn_4si_0" nVehContrib="5" flow="103.45" occupancy="1.21" speed="12.18" length="5.00" nVehEntered="5"/>
    <interval begin="3600.00" end="3774.00" id="TLS0_my_program_InductLoopOn_4si_1" nVehContrib="0" flow="0.00" occupancy="0.00" speed="-1.00" length="-1.00" nVehEntered="0"/>
    <interval begin="3600.00" end="3774.00" id="TLS0_my_program_InductLoopOn_4si_2" nVehContrib="3" flow="62.07" occupancy="9.96" speed="3.14" length="5.00" nVehEntered="2"/>
    <interval begin="3600.00" end="3774.00" id="TLS0_my_program_InductLoopOn_2si_0" nVehContrib="16" flow="331.03" occupancy="23.04" speed="9.78" length="5.00" nVehEntered="15"/>
    <interval begin="3600.00" end="3774.00" id="TLS0_my_program_InductLoopOn_2si_1" nVehContrib="16" flow="331.03" occupancy="22.83" speed="9.95" length="5.00" nVehEntered="15"/>
    <interval begin="3600.00" end="3774.00" id="TLS0_my_program_InductLoopOn_2si_2" nVehContrib="4" flow="82.76" occupancy="41.76" speed="5.35" length="5.00" nVehEntered="4"/>
    <interval begin="3600.00" end="3774.00" id="TLS0_my_program_InductLoopOn_3si_0" nVehContrib="6" flow="124.14" occupancy="1.61" speed="11.33" length="5.00" nVehEntered="6"/>
    <interval begin="3600.00" end="3774.00" id="TLS0_my_program_InductLoopOn_3si_1" nVehContrib="0" flow="0.00" occupancy="0.00" speed="-1.00" length="-1.00" nVehEntered="0"/>
    <interval begin="3600.00" end="3774.00" id="TLS0_my_program_InductLoopOn_3si_2" nVehContrib="1" flow="20.69" occupancy="0.23" speed="12.52" length="5.00" nVehEntered="1"/>
    <interval begin="3600.00" end="3774.00" id="TLS0_my_program_InductLoopOn_1si_0" nVehContrib="10" flow="206.90" occupancy="21.60" speed="8.04" length="5.00" nVehEntered="9"/>
    <interval begin="3600.00" end="3774.00" id="TLS0_my_program_InductLoopOn_1si_1" nVehContrib="10" flow="206.90" occupancy="21.35" speed="8.49" length="5.00" nVehEntered="9"/>
    <interval begin="3600.00" end="3774.00" id="TLS0_my_program_InductLoopOn_1si_2" nVehContrib="5" flow="103.45" occupancy="39.40" speed="5.52" length="5.00" nVehEntered="5"/>
</detector>
