<?xml version="1.0" encoding="UTF-8"?>

<!-- generated on 2019.3.21 21:35:58 by SUMO gui Version 0.32.0
<?xml version="1.0" encoding="UTF-8"?>

<configuration xmlns:xsi="http://www.w3.org/2001/XMLSchema-instance" xsi:noNamespaceSchemaLocation="http://sumo.dlr.de/xsd/sumoConfiguration.xsd">

    <input>
        <net-file value="data/net.net.xml"/>
        <route-files value="data/net.rou.xml"/>
    </input>

    <output>
        <tripinfo-output value="tripinfo.xml"/>
    </output>

    <time>
        <begin value="0"/>
    </time>

    <report>
        <verbose value="true"/>
        <no-step-log value="true"/>
    </report>

    <traci_server>
        <remote-port value="55867"/>
    </traci_server>

</configuration>
-->

<detector xmlns:xsi="http://www.w3.org/2001/XMLSchema-instance" xsi:noNamespaceSchemaLocation="http://sumo.dlr.de/xsd/det_e1_file.xsd">
    <interval begin="0.00" end="300.00" id="TLS0_my_program_InductLoopOn_4si_0" nVehContrib="27" flow="324.00" occupancy="37.27" speed="9.79" length="5.00" nVehEntered="31"/>
    <interval begin="0.00" end="300.00" id="TLS0_my_program_InductLoopOn_4si_1" nVehContrib="18" flow="216.00" occupancy="22.10" speed="8.21" length="5.00" nVehEntered="19"/>
    <interval begin="0.00" end="300.00" id="TLS0_my_program_InductLoopOn_4si_2" nVehContrib="7" flow="84.00" occupancy="3.79" speed="8.55" length="5.00" nVehEntered="7"/>
    <interval begin="0.00" end="300.00" id="TLS0_my_program_InductLoopOn_2si_0" nVehContrib="49" flow="588.00" occupancy="37.85" speed="10.11" length="5.00" nVehEntered="49"/>
    <interval begin="0.00" end="300.00" id="TLS0_my_program_InductLoopOn_2si_1" nVehContrib="34" flow="408.00" occupancy="30.86" speed="8.96" length="5.00" nVehEntered="34"/>
    <interval begin="0.00" end="300.00" id="TLS0_my_program_InductLoopOn_2si_2" nVehContrib="15" flow="180.00" occupancy="26.88" speed="8.53" length="5.00" nVehEntered="15"/>
    <interval begin="0.00" end="300.00" id="TLS0_my_program_InductLoopOn_3si_0" nVehContrib="20" flow="240.00" occupancy="19.01" speed="10.29" length="5.00" nVehEntered="23"/>
    <interval begin="0.00" end="300.00" id="TLS0_my_program_InductLoopOn_3si_1" nVehContrib="11" flow="132.00" occupancy="14.83" speed="7.82" length="5.00" nVehEntered="12"/>
    <interval begin="0.00" end="300.00" id="TLS0_my_program_InductLoopOn_3si_2" nVehContrib="7" flow="84.00" occupancy="0.98" speed="12.24" length="5.00" nVehEntered="7"/>
    <interval begin="0.00" end="300.00" id="TLS0_my_program_InductLoopOn_1si_0" nVehContrib="48" flow="576.00" occupancy="42.48" speed="10.00" length="5.00" nVehEntered="51"/>
    <interval begin="0.00" end="300.00" id="TLS0_my_program_InductLoopOn_1si_1" nVehContrib="39" flow="468.00" occupancy="40.54" speed="8.68" length="5.00" nVehEntered="40"/>
    <interval begin="0.00" end="300.00" id="TLS0_my_program_InductLoopOn_1si_2" nVehContrib="14" flow="168.00" occupancy="23.47" speed="9.50" length="5.00" nVehEntered="15"/>
    <interval begin="300.00" end="600.00" id="TLS0_my_program_InductLoopOn_4si_0" nVehContrib="28" flow="336.00" occupancy="20.77" speed="8.81" length="5.00" nVehEntered="33"/>
    <interval begin="300.00" end="600.00" id="TLS0_my_program_InductLoopOn_4si_1" nVehContrib="21" flow="252.00" occupancy="19.50" speed="6.11" length="5.00" nVehEntered="20"/>
    <interval begin="300.00" end="600.00" id="TLS0_my_program_InductLoopOn_4si_2" nVehContrib="15" flow="180.00" occupancy="19.75" speed="8.59" length="5.00" nVehEntered="15"/>
    <interval begin="300.00" end="600.00" id="TLS0_my_program_InductLoopOn_2si_0" nVehContrib="45" flow="540.00" occupancy="55.76" speed="9.83" length="5.00" nVehEntered="48"/>
    <interval begin="300.00" end="600.00" id="TLS0_my_program_InductLoopOn_2si_1" nVehContrib="38" flow="456.00" occupancy="42.67" speed="8.80" length="5.00" nVehEntered="39"/>
    <interval begin="300.00" end="600.00" id="TLS0_my_program_InductLoopOn_2si_2" nVehContrib="19" flow="228.00" occupancy="37.56" speed="8.01" length="5.00" nVehEntered="19"/>
    <interval begin="300.00" end="600.00" id="TLS0_my_program_InductLoopOn_3si_0" nVehContrib="32" flow="384.00" occupancy="42.32" speed="7.78" length="5.00" nVehEntered="32"/>
    <interval begin="300.00" end="600.00" id="TLS0_my_program_InductLoopOn_3si_1" nVehContrib="19" flow="228.00" occupancy="34.81" speed="6.96" length="5.00" nVehEntered="18"/>
    <interval begin="300.00" end="600.00" id="TLS0_my_program_InductLoopOn_3si_2" nVehContrib="9" flow="108.00" occupancy="1.41" speed="11.13" length="5.00" nVehEntered="9"/>
    <interval begin="300.00" end="600.00" id="TLS0_my_program_InductLoopOn_1si_0" nVehContrib="47" flow="564.00" occupancy="50.03" speed="9.18" length="5.00" nVehEntered="49"/>
    <interval begin="300.00" end="600.00" id="TLS0_my_program_InductLoopOn_1si_1" nVehContrib="45" flow="540.00" occupancy="34.25" speed="9.04" length="5.00" nVehEntered="45"/>
    <interval begin="300.00" end="600.00" id="TLS0_my_program_InductLoopOn_1si_2" nVehContrib="22" flow="264.00" occupancy="34.24" speed="7.54" length="5.00" nVehEntered="21"/>
    <interval begin="600.00" end="900.00" id="TLS0_my_program_InductLoopOn_4si_0" nVehContrib="23" flow="276.00" occupancy="29.58" speed="8.53" length="5.00" nVehEntered="27"/>
    <interval begin="600.00" end="900.00" id="TLS0_my_program_InductLoopOn_4si_1" nVehContrib="19" flow="228.00" occupancy="22.09" speed="5.79" length="5.00" nVehEntered="19"/>
    <interval begin="600.00" end="900.00" id="TLS0_my_program_InductLoopOn_4si_2" nVehContrib="11" flow="132.00" occupancy="20.06" speed="7.78" length="5.00" nVehEntered="11"/>
    <interval begin="600.00" end="900.00" id="TLS0_my_program_InductLoopOn_2si_0" nVehContrib="48" flow="576.00" occupancy="55.94" speed="9.31" length="5.00" nVehEntered="49"/>
    <interval begin="600.00" end="900.00" id="TLS0_my_program_InductLoopOn_2si_1" nVehContrib="40" flow="480.00" occupancy="49.77" speed="8.08" length="5.00" nVehEntered="39"/>
    <interval begin="600.00" end="900.00" id="TLS0_my_program_InductLoopOn_2si_2" nVehContrib="21" flow="252.00" occupancy="23.40" speed="8.65" length="5.00" nVehEntered="22"/>
    <interval begin="600.00" end="900.00" id="TLS0_my_program_InductLoopOn_3si_0" nVehContrib="30" flow="360.00" occupancy="59.77" speed="8.15" length="5.00" nVehEntered="33"/>
    <interval begin="600.00" end="900.00" id="TLS0_my_program_InductLoopOn_3si_1" nVehContrib="28" flow="336.00" occupancy="55.52" speed="7.40" length="5.00" nVehEntered="28"/>
    <interval begin="600.00" end="900.00" id="TLS0_my_program_InductLoopOn_3si_2" nVehContrib="9" flow="108.00" occupancy="10.13" speed="8.30" length="5.00" nVehEntered="9"/>
    <interval begin="600.00" end="900.00" id="TLS0_my_program_InductLoopOn_1si_0" nVehContrib="49" flow="588.00" occupancy="46.54" speed="9.64" length="5.00" nVehEntered="49"/>
    <interval begin="600.00" end="900.00" id="TLS0_my_program_InductLoopOn_1si_1" nVehContrib="35" flow="420.00" occupancy="43.79" speed="8.00" length="5.00" nVehEntered="34"/>
    <interval begin="600.00" end="900.00" id="TLS0_my_program_InductLoopOn_1si_2" nVehContrib="19" flow="228.00" occupancy="27.04" speed="8.68" length="5.00" nVehEntered="20"/>
    <interval begin="900.00" end="1200.00" id="TLS0_my_program_InductLoopOn_4si_0" nVehContrib="22" flow="264.00" occupancy="32.43" speed="8.44" length="5.00" nVehEntered="25"/>
    <interval begin="900.00" end="1200.00" id="TLS0_my_program_InductLoopOn_4si_1" nVehContrib="14" flow="168.00" occupancy="11.83" speed="8.31" length="5.00" nVehEntered="15"/>
    <interval begin="900.00" end="1200.00" id="TLS0_my_program_InductLoopOn_4si_2" nVehContrib="13" flow="156.00" occupancy="14.01" speed="9.52" length="5.00" nVehEntered="13"/>
    <interval begin="900.00" end="1200.00" id="TLS0_my_program_InductLoopOn_2si_0" nVehContrib="54" flow="648.00" occupancy="49.29" speed="9.90" length="5.00" nVehEntered="56"/>
    <interval begin="900.00" end="1200.00" id="TLS0_my_program_InductLoopOn_2si_1" nVehContrib="51" flow="612.00" occupancy="42.72" speed="8.92" length="5.00" nVehEntered="51"/>
    <interval begin="900.00" end="1200.00" id="TLS0_my_program_InductLoopOn_2si_2" nVehContrib="22" flow="264.00" occupancy="47.50" speed="8.31" length="5.00" nVehEntered="21"/>
    <interval begin="900.00" end="1200.00" id="TLS0_my_program_InductLoopOn_3si_0" nVehContrib="20" flow="240.00" occupancy="20.29" speed="8.90" length="5.00" nVehEntered="24"/>
    <interval begin="900.00" end="1200.00" id="TLS0_my_program_InductLoopOn_3si_1" nVehContrib="14" flow="168.00" occupancy="15.86" speed="7.01" length="5.00" nVehEntered="15"/>
    <interval begin="900.00" end="1200.00" id="TLS0_my_program_InductLoopOn_3si_2" nVehContrib="15" flow="180.00" occupancy="24.93" speed="8.07" length="5.00" nVehEntered="15"/>
    <interval begin="900.00" end="1200.00" id="TLS0_my_program_InductLoopOn_1si_0" nVehContrib="58" flow="696.00" occupancy="53.03" speed="10.02" length="5.00" nVehEntered="59"/>
    <interval begin="900.00" end="1200.00" id="TLS0_my_program_InductLoopOn_1si_1" nVehContrib="46" flow="552.00" occupancy="47.00" speed="9.15" length="5.00" nVehEntered="46"/>
    <interval begin="900.00" end="1200.00" id="TLS0_my_program_InductLoopOn_1si_2" nVehContrib="16" flow="192.00" occupancy="14.97" speed="8.91" length="5.00" nVehEntered="15"/>
    <interval begin="1200.00" end="1500.00" id="TLS0_my_program_InductLoopOn_4si_0" nVehContrib="24" flow="288.00" occupancy="45.90" speed="7.62" length="5.00" nVehEntered="25"/>
    <interval begin="1200.00" end="1500.00" id="TLS0_my_program_InductLoopOn_4si_1" nVehContrib="20" flow="240.00" occupancy="33.10" speed="6.17" length="5.00" nVehEntered="20"/>
    <interval begin="1200.00" end="1500.00" id="TLS0_my_program_InductLoopOn_4si_2" nVehContrib="15" flow="180.00" occupancy="29.52" speed="7.91" length="5.00" nVehEntered="16"/>
    <interval begin="1200.00" end="1500.00" id="TLS0_my_program_InductLoopOn_2si_0" nVehContrib="54" flow="648.00" occupancy="47.15" speed="9.69" length="5.00" nVehEntered="56"/>
    <interval begin="1200.00" end="1500.00" id="TLS0_my_program_InductLoopOn_2si_1" nVehContrib="48" flow="576.00" occupancy="42.06" speed="9.29" length="5.00" nVehEntered="49"/>
    <interval begin="1200.00" end="1500.00" id="TLS0_my_program_InductLoopOn_2si_2" nVehContrib="21" flow="252.00" occupancy="23.28" speed="8.06" length="5.00" nVehEntered="21"/>
    <interval begin="1200.00" end="1500.00" id="TLS0_my_program_InductLoopOn_3si_0" nVehContrib="24" flow="288.00" occupancy="46.45" speed="7.13" length="5.00" nVehEntered="25"/>
    <interval begin="1200.00" end="1500.00" id="TLS0_my_program_InductLoopOn_3si_1" nVehContrib="20" flow="240.00" occupancy="36.23" speed="6.03" length="5.00" nVehEntered="19"/>
    <interval begin="1200.00" end="1500.00" id="TLS0_my_program_InductLoopOn_3si_2" nVehContrib="8" flow="96.00" occupancy="2.33" speed="9.06" length="5.00" nVehEntered="8"/>
    <interval begin="1200.00" end="1500.00" id="TLS0_my_program_InductLoopOn_1si_0" nVehContrib="48" flow="576.00" occupancy="47.41" speed="9.67" length="5.00" nVehEntered="51"/>
    <interval begin="1200.00" end="1500.00" id="TLS0_my_program_InductLoopOn_1si_1" nVehContrib="36" flow="432.00" occupancy="36.83" speed="8.60" length="5.00" nVehEntered="37"/>
    <interval begin="1200.00" end="1500.00" id="TLS0_my_program_InductLoopOn_1si_2" nVehContrib="19" flow="228.00" occupancy="26.35" speed="8.43" length="5.00" nVehEntered="19"/>
    <interval begin="1500.00" end="1800.00" id="TLS0_my_program_InductLoopOn_4si_0" nVehContrib="28" flow="336.00" occupancy="42.14" speed="8.90" length="5.00" nVehEntered="29"/>
    <interval begin="1500.00" end="1800.00" id="TLS0_my_program_InductLoopOn_4si_1" nVehContrib="21" flow="252.00" occupancy="23.43" speed="7.39" length="5.00" nVehEntered="20"/>
    <interval begin="1500.00" end="1800.00" id="TLS0_my_program_InductLoopOn_4si_2" nVehContrib="7" flow="84.00" occupancy="5.99" speed="9.85" length="5.00" nVehEntered="6"/>
    <interval begin="1500.00" end="1800.00" id="TLS0_my_program_InductLoopOn_2si_0" nVehContrib="52" flow="624.00" occupancy="50.61" speed="9.48" length="5.00" nVehEntered="54"/>
    <interval begin="1500.00" end="1800.00" id="TLS0_my_program_InductLoopOn_2si_1" nVehContrib="38" flow="456.00" occupancy="41.91" speed="7.68" length="5.00" nVehEntered="37"/>
    <interval begin="1500.00" end="1800.00" id="TLS0_my_program_InductLoopOn_2si_2" nVehContrib="15" flow="180.00" occupancy="16.45" speed="9.48" length="5.00" nVehEntered="16"/>
    <interval begin="1500.00" end="1800.00" id="TLS0_my_program_InductLoopOn_3si_0" nVehContrib="25" flow="300.00" occupancy="39.04" speed="8.43" length="5.00" nVehEntered="29"/>
    <interval begin="1500.00" end="1800.00" id="TLS0_my_program_InductLoopOn_3si_1" nVehContrib="25" flow="300.00" occupancy="23.86" speed="7.52" length="5.00" nVehEntered="25"/>
    <interval begin="1500.00" end="1800.00" id="TLS0_my_program_InductLoopOn_3si_2" nVehContrib="12" flow="144.00" occupancy="7.11" speed="9.97" length="5.00" nVehEntered="12"/>
    <interval begin="1500.00" end="1800.00" id="TLS0_my_program_InductLoopOn_1si_0" nVehContrib="51" flow="612.00" occupancy="53.40" speed="9.29" length="5.00" nVehEntered="54"/>
    <interval begin="1500.00" end="1800.00" id="TLS0_my_program_InductLoopOn_1si_1" nVehContrib="44" flow="528.00" occupancy="46.58" speed="7.70" length="5.00" nVehEntered="43"/>
    <interval begin="1500.00" end="1800.00" id="TLS0_my_program_InductLoopOn_1si_2" nVehContrib="20" flow="240.00" occupancy="33.77" speed="8.44" length="5.00" nVehEntered="21"/>
    <interval begin="1800.00" end="2100.00" id="TLS0_my_program_InductLoopOn_4si_0" nVehContrib="23" flow="276.00" occupancy="44.55" speed="8.58" length="5.00" nVehEntered="28"/>
    <interval begin="1800.00" end="2100.00" id="TLS0_my_program_InductLoopOn_4si_1" nVehContrib="22" flow="264.00" occupancy="34.06" speed="6.82" length="5.00" nVehEntered="23"/>
    <interval begin="1800.00" end="2100.00" id="TLS0_my_program_InductLoopOn_4si_2" nVehContrib="14" flow="168.00" occupancy="31.32" speed="7.54" length="5.00" nVehEntered="14"/>
    <interval begin="1800.00" end="2100.00" id="TLS0_my_program_InductLoopOn_2si_0" nVehContrib="55" flow="660.00" occupancy="53.74" speed="9.72" length="5.00" nVehEntered="57"/>
    <interval begin="1800.00" end="2100.00" id="TLS0_my_program_InductLoopOn_2si_1" nVehContrib="44" flow="528.00" occupancy="48.64" speed="8.93" length="5.00" nVehEntered="44"/>
    <interval begin="1800.00" end="2100.00" id="TLS0_my_program_InductLoopOn_2si_2" nVehContrib="17" flow="204.00" occupancy="25.12" speed="8.84" length="5.00" nVehEntered="17"/>
    <interval begin="1800.00" end="2100.00" id="TLS0_my_program_InductLoopOn_3si_0" nVehContrib="28" flow="336.00" occupancy="46.67" speed="8.45" length="5.00" nVehEntered="32"/>
    <interval begin="1800.00" end="2100.00" id="TLS0_my_program_InductLoopOn_3si_1" nVehContrib="17" flow="204.00" occupancy="40.81" speed="5.77" length="5.00" nVehEntered="18"/>
    <interval begin="1800.00" end="2100.00" id="TLS0_my_program_InductLoopOn_3si_2" nVehContrib="7" flow="84.00" occupancy="1.09" speed="11.09" length="5.00" nVehEntered="7"/>
    <interval begin="1800.00" end="2100.00" id="TLS0_my_program_InductLoopOn_1si_0" nVehContrib="49" flow="588.00" occupancy="56.05" speed="9.91" length="5.00" nVehEntered="50"/>
    <interval begin="1800.00" end="2100.00" id="TLS0_my_program_InductLoopOn_1si_1" nVehContrib="38" flow="456.00" occupancy="40.13" speed="8.60" length="5.00" nVehEntered="38"/>
    <interval begin="1800.00" end="2100.00" id="TLS0_my_program_InductLoopOn_1si_2" nVehContrib="24" flow="288.00" occupancy="46.25" speed="8.11" length="5.00" nVehEntered="24"/>
    <interval begin="2100.00" end="2400.00" id="TLS0_my_program_InductLoopOn_4si_0" nVehContrib="27" flow="324.00" occupancy="35.80" speed="7.37" length="5.00" nVehEntered="28"/>
    <interval begin="2100.00" end="2400.00" id="TLS0_my_program_InductLoopOn_4si_1" nVehContrib="20" flow="240.00" occupancy="34.68" speed="5.91" length="5.00" nVehEntered="19"/>
    <interval begin="2100.00" end="2400.00" id="TLS0_my_program_InductLoopOn_4si_2" nVehContrib="9" flow="108.00" occupancy="12.76" speed="8.58" length="5.00" nVehEntered="10"/>
    <interval begin="2100.00" end="2400.00" id="TLS0_my_program_InductLoopOn_2si_0" nVehContrib="46" flow="552.00" occupancy="45.32" speed="9.73" length="5.00" nVehEntered="50"/>
    <interval begin="2100.00" end="2400.00" id="TLS0_my_program_InductLoopOn_2si_1" nVehContrib="36" flow="432.00" occupancy="40.96" speed="8.48" length="5.00" nVehEntered="37"/>
    <interval begin="2100.00" end="2400.00" id="TLS0_my_program_InductLoopOn_2si_2" nVehContrib="16" flow="192.00" occupancy="13.38" speed="8.27" length="5.00" nVehEntered="15"/>
    <interval begin="2100.00" end="2400.00" id="TLS0_my_program_InductLoopOn_3si_0" nVehContrib="31" flow="372.00" occupancy="39.25" speed="8.47" length="5.00" nVehEntered="35"/>
    <interval begin="2100.00" end="2400.00" id="TLS0_my_program_InductLoopOn_3si_1" nVehContrib="23" flow="276.00" occupancy="17.15" speed="6.72" length="5.00" nVehEntered="22"/>
    <interval begin="2100.00" end="2400.00" id="TLS0_my_program_InductLoopOn_3si_2" nVehContrib="7" flow="84.00" occupancy="13.34" speed="10.79" length="5.00" nVehEntered="8"/>
    <interval begin="2100.00" end="2400.00" id="TLS0_my_program_InductLoopOn_1si_0" nVehContrib="47" flow="564.00" occupancy="45.25" speed="9.88" length="5.00" nVehEntered="50"/>
    <interval begin="2100.00" end="2400.00" id="TLS0_my_program_InductLoopOn_1si_1" nVehContrib="35" flow="420.00" occupancy="37.58" speed="8.04" length="5.00" nVehEntered="36"/>
    <interval begin="2100.00" end="2400.00" id="TLS0_my_program_InductLoopOn_1si_2" nVehContrib="25" flow="300.00" occupancy="51.86" speed="7.62" length="5.00" nVehEntered="24"/>
    <interval begin="2400.00" end="2700.00" id="TLS0_my_program_InductLoopOn_4si_0" nVehContrib="25" flow="300.00" occupancy="23.85" speed="8.64" length="5.00" nVehEntered="29"/>
    <interval begin="2400.00" end="2700.00" id="TLS0_my_program_InductLoopOn_4si_1" nVehContrib="16" flow="192.00" occupancy="22.31" speed="5.70" length="5.00" nVehEntered="16"/>
    <interval begin="2400.00" end="2700.00" id="TLS0_my_program_InductLoopOn_4si_2" nVehContrib="7" flow="84.00" occupancy="0.80" speed="12.50" length="5.00" nVehEntered="6"/>
    <interval begin="2400.00" end="2700.00" id="TLS0_my_program_InductLoopOn_2si_0" nVehContrib="56" flow="672.00" occupancy="53.07" speed="9.82" length="5.00" nVehEntered="56"/>
    <interval begin="2400.00" end="2700.00" id="TLS0_my_program_InductLoopOn_2si_1" nVehContrib="43" flow="516.00" occupancy="46.53" speed="8.28" length="5.00" nVehEntered="42"/>
    <interval begin="2400.00" end="2700.00" id="TLS0_my_program_InductLoopOn_2si_2" nVehContrib="19" flow="228.00" occupancy="30.78" speed="9.01" length="5.00" nVehEntered="19"/>
    <interval begin="2400.00" end="2700.00" id="TLS0_my_program_InductLoopOn_3si_0" nVehContrib="28" flow="336.00" occupancy="39.92" speed="8.44" length="5.00" nVehEntered="30"/>
    <interval begin="2400.00" end="2700.00" id="TLS0_my_program_InductLoopOn_3si_1" nVehContrib="19" flow="228.00" occupancy="29.56" speed="6.87" length="5.00" nVehEntered="19"/>
    <interval begin="2400.00" end="2700.00" id="TLS0_my_program_InductLoopOn_3si_2" nVehContrib="11" flow="132.00" occupancy="23.47" speed="7.47" length="5.00" nVehEntered="10"/>
    <interval begin="2400.00" end="2700.00" id="TLS0_my_program_InductLoopOn_1si_0" nVehContrib="55" flow="660.00" occupancy="55.02" speed="9.46" length="5.00" nVehEntered="55"/>
    <interval begin="2400.00" end="2700.00" id="TLS0_my_program_InductLoopOn_1si_1" nVehContrib="43" flow="516.00" occupancy="44.21" speed="8.23" length="5.00" nVehEntered="42"/>
    <interval begin="2400.00" end="2700.00" id="TLS0_my_program_InductLoopOn_1si_2" nVehContrib="18" flow="216.00" occupancy="45.05" speed="7.75" length="5.00" nVehEntered="19"/>
    <interval begin="2700.00" end="3000.00" id="TLS0_my_program_InductLoopOn_4si_0" nVehContrib="24" flow="288.00" occupancy="47.37" speed="7.63" length="5.00" nVehEntered="27"/>
    <interval begin="2700.00" end="3000.00" id="TLS0_my_program_InductLoopOn_4si_1" nVehContrib="19" flow="228.00" occupancy="40.22" speed="5.96" length="5.00" nVehEntered="19"/>
    <interval begin="2700.00" end="3000.00" id="TLS0_my_program_InductLoopOn_4si_2" nVehContrib="4" flow="48.00" occupancy="0.56" speed="12.09" length="5.00" nVehEntered="4"/>
    <interval begin="2700.00" end="3000.00" id="TLS0_my_program_InductLoopOn_2si_0" nVehContrib="53" flow="636.00" occupancy="44.35" speed="10.22" length="5.00" nVehEntered="53"/>
    <interval begin="2700.00" end="3000.00" id="TLS0_my_program_InductLoopOn_2si_1" nVehContrib="39" flow="468.00" occupancy="31.50" speed="9.21" length="5.00" nVehEntered="39"/>
    <interval begin="2700.00" end="3000.00" id="TLS0_my_program_InductLoopOn_2si_2" nVehContrib="18" flow="216.00" occupancy="26.66" speed="7.72" length="5.00" nVehEntered="18"/>
    <interval begin="2700.00" end="3000.00" id="TLS0_my_program_InductLoopOn_3si_0" nVehContrib="28" flow="336.00" occupancy="57.64" speed="8.47" length="5.00" nVehEntered="33"/>
    <interval begin="2700.00" end="3000.00" id="TLS0_my_program_InductLoopOn_3si_1" nVehContrib="23" flow="276.00" occupancy="41.77" speed="6.80" length="5.00" nVehEntered="23"/>
    <interval begin="2700.00" end="3000.00" id="TLS0_my_program_InductLoopOn_3si_2" nVehContrib="9" flow="108.00" occupancy="1.41" speed="11.07" length="5.00" nVehEntered="9"/>
    <interval begin="2700.00" end="3000.00" id="TLS0_my_program_InductLoopOn_1si_0" nVehContrib="56" flow="672.00" occupancy="44.28" speed="10.16" length="5.00" nVehEntered="58"/>
    <interval begin="2700.00" end="3000.00" id="TLS0_my_program_InductLoopOn_1si_1" nVehContrib="45" flow="540.00" occupancy="38.60" speed="8.83" length="5.00" nVehEntered="45"/>
    <interval begin="2700.00" end="3000.00" id="TLS0_my_program_InductLoopOn_1si_2" nVehContrib="28" flow="336.00" occupancy="59.27" speed="8.14" length="5.00" nVehEntered="27"/>
    <interval begin="3000.00" end="3300.00" id="TLS0_my_program_InductLoopOn_4si_0" nVehContrib="32" flow="384.00" occupancy="49.74" speed="8.12" length="5.00" nVehEntered="32"/>
    <interval begin="3000.00" end="3300.00" id="TLS0_my_program_InductLoopOn_4si_1" nVehContrib="21" flow="252.00" occupancy="34.83" speed="8.65" length="5.00" nVehEntered="22"/>
    <interval begin="3000.00" end="3300.00" id="TLS0_my_program_InductLoopOn_4si_2" nVehContrib="12" flow="144.00" occupancy="2.63" speed="9.50" length="5.00" nVehEntered="12"/>
    <interval begin="3000.00" end="3300.00" id="TLS0_my_program_InductLoopOn_2si_0" nVehContrib="48" flow="576.00" occupancy="50.08" speed="9.27" length="5.00" nVehEntered="51"/>
    <interval begin="3000.00" end="3300.00" id="TLS0_my_program_InductLoopOn_2si_1" nVehContrib="40" flow="480.00" occupancy="39.44" speed="8.03" length="5.00" nVehEntered="40"/>
    <interval begin="3000.00" end="3300.00" id="TLS0_my_program_InductLoopOn_2si_2" nVehContrib="22" flow="264.00" occupancy="37.38" speed="8.03" length="5.00" nVehEntered="22"/>
    <interval begin="3000.00" end="3300.00" id="TLS0_my_program_InductLoopOn_3si_0" nVehContrib="29" flow="348.00" occupancy="36.71" speed="8.36" length="5.00" nVehEntered="31"/>
    <interval begin="3000.00" end="3300.00" id="TLS0_my_program_InductLoopOn_3si_1" nVehContrib="14" flow="168.00" occupancy="19.58" speed="6.65" length="5.00" nVehEntered="14"/>
    <interval begin="3000.00" end="3300.00" id="TLS0_my_program_InductLoopOn_3si_2" nVehContrib="14" flow="168.00" occupancy="48.32" speed="7.84" length="5.00" nVehEntered="14"/>
    <interval begin="3000.00" end="3300.00" id="TLS0_my_program_InductLoopOn_1si_0" nVehContrib="45" flow="540.00" occupancy="57.12" speed="8.86" length="5.00" nVehEntered="48"/>
    <interval begin="3000.00" end="3300.00" id="TLS0_my_program_InductLoopOn_1si_1" nVehContrib="41" flow="492.00" occupancy="50.44" speed="7.73" length="5.00" nVehEntered="41"/>
    <interval begin="3000.00" end="3300.00" id="TLS0_my_program_InductLoopOn_1si_2" nVehContrib="17" flow="204.00" occupancy="5.16" speed="9.99" length="5.00" nVehEntered="17"/>
    <interval begin="3300.00" end="3600.00" id="TLS0_my_program_InductLoopOn_4si_0" nVehContrib="27" flow="324.00" occupancy="56.44" speed="7.92" length="5.00" nVehEntered="27"/>
    <interval begin="3300.00" end="3600.00" id="TLS0_my_program_InductLoopOn_4si_1" nVehContrib="24" flow="288.00" occupancy="51.65" speed="7.42" length="5.00" nVehEntered="23"/>
    <interval begin="3300.00" end="3600.00" id="TLS0_my_program_InductLoopOn_4si_2" nVehContrib="15" flow="180.00" occupancy="22.24" speed="7.79" length="5.00" nVehEntered="15"/>
    <interval begin="3300.00" end="3600.00" id="TLS0_my_program_InductLoopOn_2si_0" nVehContrib="54" flow="648.00" occupancy="62.16" speed="9.53" length="5.00" nVehEntered="57"/>
    <interval begin="3300.00" end="3600.00" id="TLS0_my_program_InductLoopOn_2si_1" nVehContrib="53" flow="636.00" occupancy="61.45" speed="8.87" length="5.00" nVehEntered="54"/>
    <interval begin="3300.00" end="3600.00" id="TLS0_my_program_InductLoopOn_2si_2" nVehContrib="18" flow="216.00" occupancy="33.92" speed="8.35" length="5.00" nVehEntered="19"/>
    <interval begin="3300.00" end="3600.00" id="TLS0_my_program_InductLoopOn_3si_0" nVehContrib="29" flow="348.00" occupancy="38.56" speed="8.34" length="5.00" nVehEntered="32"/>
    <interval begin="3300.00" end="3600.00" id="TLS0_my_program_InductLoopOn_3si_1" nVehContrib="25" flow="300.00" occupancy="33.40" speed="7.63" length="5.00" nVehEntered="25"/>
    <interval begin="3300.00" end="3600.00" id="TLS0_my_program_InductLoopOn_3si_2" nVehContrib="9" flow="108.00" occupancy="7.36" speed="9.05" length="5.00" nVehEntered="9"/>
    <interval begin="3300.00" end="3600.00" id="TLS0_my_program_InductLoopOn_1si_0" nVehContrib="52" flow="624.00" occupancy="52.54" speed="9.60" length="5.00" nVehEntered="53"/>
    <interval begin="3300.00" end="3600.00" id="TLS0_my_program_InductLoopOn_1si_1" nVehContrib="45" flow="540.00" occupancy="44.85" speed="8.97" length="5.00" nVehEntered="45"/>
    <interval begin="3300.00" end="3600.00" id="TLS0_my_program_InductLoopOn_1si_2" nVehContrib="16" flow="192.00" occupancy="24.97" speed="8.74" length="5.00" nVehEntered="17"/>
    <interval begin="3600.00" end="3762.00" id="TLS0_my_program_InductLoopOn_4si_0" nVehContrib="2" flow="44.44" occupancy="7.29" speed="4.83" length="5.00" nVehEntered="3"/>
    <interval begin="3600.00" end="3762.00" id="TLS0_my_program_InductLoopOn_4si_1" nVehContrib="3" flow="66.67" occupancy="1.64" speed="6.63" length="5.00" nVehEntered="3"/>
    <interval begin="3600.00" end="3762.00" id="TLS0_my_program_InductLoopOn_4si_2" nVehContrib="1" flow="22.22" occupancy="0.23" speed="13.18" length="5.00" nVehEntered="1"/>
    <interval begin="3600.00" end="3762.00" id="TLS0_my_program_InductLoopOn_2si_0" nVehContrib="11" flow="244.44" occupancy="32.50" speed="9.38" length="5.00" nVehEntered="11"/>
    <interval begin="3600.00" end="3762.00" id="TLS0_my_program_InductLoopOn_2si_1" nVehContrib="11" flow="244.44" occupancy="32.63" speed="8.67" length="5.00" nVehEntered="10"/>
    <interval begin="3600.00" end="3762.00" id="TLS0_my_program_InductLoopOn_2si_2" nVehContrib="6" flow="133.33" occupancy="12.46" speed="6.89" length="5.00" nVehEntered="5"/>
    <interval begin="3600.00" end="3762.00" id="TLS0_my_program_InductLoopOn_3si_0" nVehContrib="3" flow="66.67" occupancy="24.71" speed="3.01" length="5.00" nVehEntered="2"/>
    <interval begin="3600.00" end="3762.00" id="TLS0_my_program_InductLoopOn_3si_1" nVehContrib="4" flow="88.89" occupancy="13.66" speed="4.87" length="5.00" nVehEntered="4"/>
    <interval begin="3600.00" end="3762.00" id="TLS0_my_program_InductLoopOn_3si_2" nVehContrib="1" flow="22.22" occupancy="0.23" speed="13.18" length="5.00" nVehEntered="1"/>
    <interval begin="3600.00" end="3762.00" id="TLS0_my_program_InductLoopOn_1si_0" nVehContrib="6" flow="133.33" occupancy="1.55" speed="12.19" length="5.00" nVehEntered="7"/>
    <interval begin="3600.00" end="3762.00" id="TLS0_my_program_InductLoopOn_1si_1" nVehContrib="2" flow="44.44" occupancy="1.03" speed="8.26" length="5.00" nVehEntered="2"/>
    <interval begin="3600.00" end="3762.00" id="TLS0_my_program_InductLoopOn_1si_2" nVehContrib="7" flow="155.56" occupancy="13.03" speed="7.51" length="5.00" nVehEntered="6"/>
</detector>
