<?xml version="1.0" encoding="UTF-8"?>

<!-- generated on 03/23/19 17:17:02 by Eclipse SUMO GUI Version 1.1.0
<configuration xmlns:xsi="http://www.w3.org/2001/XMLSchema-instance" xsi:noNamespaceSchemaLocation="http://sumo.dlr.de/xsd/sumoConfiguration.xsd">

    <input>
        <net-file value="data/net.net.xml"/>
        <route-files value="data/net.rou.xml"/>
    </input>

    <output>
        <tripinfo-output value="tripinfo.xml"/>
    </output>

    <time>
        <begin value="0"/>
    </time>

    <report>
        <verbose value="true"/>
        <no-step-log value="true"/>
    </report>

    <traci_server>
        <remote-port value="62173"/>
    </traci_server>

</configuration>
-->

<detector xmlns:xsi="http://www.w3.org/2001/XMLSchema-instance" xsi:noNamespaceSchemaLocation="http://sumo.dlr.de/xsd/det_e1_file.xsd">
    <interval begin="0.00" end="300.00" id="TLS0_my_program_InductLoopOn_4si_0" nVehContrib="25" flow="300.00" occupancy="22.22" speed="9.57" length="5.00" nVehEntered="28"/>
    <interval begin="0.00" end="300.00" id="TLS0_my_program_InductLoopOn_4si_1" nVehContrib="15" flow="180.00" occupancy="12.32" speed="7.78" length="5.00" nVehEntered="16"/>
    <interval begin="0.00" end="300.00" id="TLS0_my_program_InductLoopOn_4si_2" nVehContrib="4" flow="48.00" occupancy="0.54" speed="12.39" length="5.00" nVehEntered="4"/>
    <interval begin="0.00" end="300.00" id="TLS0_my_program_InductLoopOn_2si_0" nVehContrib="35" flow="420.00" occupancy="31.34" speed="9.07" length="5.00" nVehEntered="37"/>
    <interval begin="0.00" end="300.00" id="TLS0_my_program_InductLoopOn_2si_1" nVehContrib="29" flow="348.00" occupancy="23.90" speed="8.23" length="5.00" nVehEntered="29"/>
    <interval begin="0.00" end="300.00" id="TLS0_my_program_InductLoopOn_2si_2" nVehContrib="13" flow="156.00" occupancy="12.02" speed="9.51" length="5.00" nVehEntered="13"/>
    <interval begin="0.00" end="300.00" id="TLS0_my_program_InductLoopOn_3si_0" nVehContrib="18" flow="216.00" occupancy="20.93" speed="9.98" length="5.00" nVehEntered="22"/>
    <interval begin="0.00" end="300.00" id="TLS0_my_program_InductLoopOn_3si_1" nVehContrib="8" flow="96.00" occupancy="2.04" speed="8.67" length="5.00" nVehEntered="8"/>
    <interval begin="0.00" end="300.00" id="TLS0_my_program_InductLoopOn_3si_2" nVehContrib="7" flow="84.00" occupancy="0.90" speed="13.11" length="5.00" nVehEntered="7"/>
    <interval begin="0.00" end="300.00" id="TLS0_my_program_InductLoopOn_1si_0" nVehContrib="39" flow="468.00" occupancy="32.04" speed="9.10" length="5.00" nVehEntered="42"/>
    <interval begin="0.00" end="300.00" id="TLS0_my_program_InductLoopOn_1si_1" nVehContrib="29" flow="348.00" occupancy="26.59" speed="7.27" length="5.00" nVehEntered="29"/>
    <interval begin="0.00" end="300.00" id="TLS0_my_program_InductLoopOn_1si_2" nVehContrib="13" flow="156.00" occupancy="2.00" speed="11.24" length="5.00" nVehEntered="13"/>
    <interval begin="300.00" end="600.00" id="TLS0_my_program_InductLoopOn_4si_0" nVehContrib="23" flow="276.00" occupancy="24.52" speed="8.34" length="5.00" nVehEntered="24"/>
    <interval begin="300.00" end="600.00" id="TLS0_my_program_InductLoopOn_4si_1" nVehContrib="13" flow="156.00" occupancy="9.01" speed="8.05" length="5.00" nVehEntered="12"/>
    <interval begin="300.00" end="600.00" id="TLS0_my_program_InductLoopOn_4si_2" nVehContrib="12" flow="144.00" occupancy="2.02" speed="10.35" length="5.00" nVehEntered="12"/>
    <interval begin="300.00" end="600.00" id="TLS0_my_program_InductLoopOn_2si_0" nVehContrib="44" flow="528.00" occupancy="35.41" speed="9.36" length="5.00" nVehEntered="46"/>
    <interval begin="300.00" end="600.00" id="TLS0_my_program_InductLoopOn_2si_1" nVehContrib="30" flow="360.00" occupancy="32.45" speed="7.71" length="5.00" nVehEntered="30"/>
    <interval begin="300.00" end="600.00" id="TLS0_my_program_InductLoopOn_2si_2" nVehContrib="13" flow="156.00" occupancy="19.67" speed="8.64" length="5.00" nVehEntered="13"/>
    <interval begin="300.00" end="600.00" id="TLS0_my_program_InductLoopOn_3si_0" nVehContrib="20" flow="240.00" occupancy="25.22" speed="8.80" length="5.00" nVehEntered="23"/>
    <interval begin="300.00" end="600.00" id="TLS0_my_program_InductLoopOn_3si_1" nVehContrib="15" flow="180.00" occupancy="12.21" speed="7.30" length="5.00" nVehEntered="15"/>
    <interval begin="300.00" end="600.00" id="TLS0_my_program_InductLoopOn_3si_2" nVehContrib="7" flow="84.00" occupancy="1.01" speed="11.58" length="5.00" nVehEntered="7"/>
    <interval begin="300.00" end="600.00" id="TLS0_my_program_InductLoopOn_1si_0" nVehContrib="40" flow="480.00" occupancy="30.25" speed="9.18" length="5.00" nVehEntered="43"/>
    <interval begin="300.00" end="600.00" id="TLS0_my_program_InductLoopOn_1si_1" nVehContrib="32" flow="384.00" occupancy="22.19" speed="8.48" length="5.00" nVehEntered="32"/>
    <interval begin="300.00" end="600.00" id="TLS0_my_program_InductLoopOn_1si_2" nVehContrib="16" flow="192.00" occupancy="18.63" speed="9.18" length="5.00" nVehEntered="16"/>
    <interval begin="600.00" end="900.00" id="TLS0_my_program_InductLoopOn_4si_0" nVehContrib="22" flow="264.00" occupancy="11.20" speed="9.34" length="5.00" nVehEntered="24"/>
    <interval begin="600.00" end="900.00" id="TLS0_my_program_InductLoopOn_4si_1" nVehContrib="8" flow="96.00" occupancy="2.38" speed="7.55" length="5.00" nVehEntered="8"/>
    <interval begin="600.00" end="900.00" id="TLS0_my_program_InductLoopOn_4si_2" nVehContrib="10" flow="120.00" occupancy="5.45" speed="9.60" length="5.00" nVehEntered="10"/>
    <interval begin="600.00" end="900.00" id="TLS0_my_program_InductLoopOn_2si_0" nVehContrib="45" flow="540.00" occupancy="33.64" speed="8.52" length="5.00" nVehEntered="45"/>
    <interval begin="600.00" end="900.00" id="TLS0_my_program_InductLoopOn_2si_1" nVehContrib="36" flow="432.00" occupancy="19.94" speed="8.68" length="5.00" nVehEntered="36"/>
    <interval begin="600.00" end="900.00" id="TLS0_my_program_InductLoopOn_2si_2" nVehContrib="17" flow="204.00" occupancy="18.19" speed="9.66" length="5.00" nVehEntered="17"/>
    <interval begin="600.00" end="900.00" id="TLS0_my_program_InductLoopOn_3si_0" nVehContrib="27" flow="324.00" occupancy="41.20" speed="7.53" length="5.00" nVehEntered="26"/>
    <interval begin="600.00" end="900.00" id="TLS0_my_program_InductLoopOn_3si_1" nVehContrib="23" flow="276.00" occupancy="28.22" speed="8.14" length="5.00" nVehEntered="23"/>
    <interval begin="600.00" end="900.00" id="TLS0_my_program_InductLoopOn_3si_2" nVehContrib="4" flow="48.00" occupancy="0.51" speed="12.99" length="5.00" nVehEntered="4"/>
    <interval begin="600.00" end="900.00" id="TLS0_my_program_InductLoopOn_1si_0" nVehContrib="40" flow="480.00" occupancy="26.58" speed="8.99" length="5.00" nVehEntered="42"/>
    <interval begin="600.00" end="900.00" id="TLS0_my_program_InductLoopOn_1si_1" nVehContrib="31" flow="372.00" occupancy="14.23" speed="9.68" length="5.00" nVehEntered="31"/>
    <interval begin="600.00" end="900.00" id="TLS0_my_program_InductLoopOn_1si_2" nVehContrib="16" flow="192.00" occupancy="18.72" speed="7.92" length="5.00" nVehEntered="17"/>
    <interval begin="900.00" end="1200.00" id="TLS0_my_program_InductLoopOn_4si_0" nVehContrib="19" flow="228.00" occupancy="18.40" speed="9.03" length="5.00" nVehEntered="20"/>
    <interval begin="900.00" end="1200.00" id="TLS0_my_program_InductLoopOn_4si_1" nVehContrib="14" flow="168.00" occupancy="6.31" speed="8.58" length="5.00" nVehEntered="14"/>
    <interval begin="900.00" end="1200.00" id="TLS0_my_program_InductLoopOn_4si_2" nVehContrib="9" flow="108.00" occupancy="6.61" speed="9.12" length="5.00" nVehEntered="9"/>
    <interval begin="900.00" end="1200.00" id="TLS0_my_program_InductLoopOn_2si_0" nVehContrib="40" flow="480.00" occupancy="30.58" speed="8.83" length="5.00" nVehEntered="40"/>
    <interval begin="900.00" end="1200.00" id="TLS0_my_program_InductLoopOn_2si_1" nVehContrib="34" flow="408.00" occupancy="18.64" speed="9.56" length="5.00" nVehEntered="34"/>
    <interval begin="900.00" end="1200.00" id="TLS0_my_program_InductLoopOn_2si_2" nVehContrib="17" flow="204.00" occupancy="17.31" speed="9.05" length="5.00" nVehEntered="17"/>
    <interval begin="900.00" end="1200.00" id="TLS0_my_program_InductLoopOn_3si_0" nVehContrib="20" flow="240.00" occupancy="8.90" speed="9.56" length="5.00" nVehEntered="22"/>
    <interval begin="900.00" end="1200.00" id="TLS0_my_program_InductLoopOn_3si_1" nVehContrib="12" flow="144.00" occupancy="2.72" speed="8.53" length="5.00" nVehEntered="12"/>
    <interval begin="900.00" end="1200.00" id="TLS0_my_program_InductLoopOn_3si_2" nVehContrib="14" flow="168.00" occupancy="13.46" speed="8.84" length="5.00" nVehEntered="14"/>
    <interval begin="900.00" end="1200.00" id="TLS0_my_program_InductLoopOn_1si_0" nVehContrib="44" flow="528.00" occupancy="48.26" speed="8.63" length="5.00" nVehEntered="45"/>
    <interval begin="900.00" end="1200.00" id="TLS0_my_program_InductLoopOn_1si_1" nVehContrib="35" flow="420.00" occupancy="40.09" speed="7.51" length="5.00" nVehEntered="35"/>
    <interval begin="900.00" end="1200.00" id="TLS0_my_program_InductLoopOn_1si_2" nVehContrib="14" flow="168.00" occupancy="12.06" speed="8.13" length="5.00" nVehEntered="13"/>
    <interval begin="1200.00" end="1500.00" id="TLS0_my_program_InductLoopOn_4si_0" nVehContrib="24" flow="288.00" occupancy="19.28" speed="8.18" length="5.00" nVehEntered="25"/>
    <interval begin="1200.00" end="1500.00" id="TLS0_my_program_InductLoopOn_4si_1" nVehContrib="16" flow="192.00" occupancy="11.05" speed="7.86" length="5.00" nVehEntered="16"/>
    <interval begin="1200.00" end="1500.00" id="TLS0_my_program_InductLoopOn_4si_2" nVehContrib="15" flow="180.00" occupancy="12.37" speed="9.67" length="5.00" nVehEntered="15"/>
    <interval begin="1200.00" end="1500.00" id="TLS0_my_program_InductLoopOn_2si_0" nVehContrib="46" flow="552.00" occupancy="49.61" speed="8.53" length="5.00" nVehEntered="49"/>
    <interval begin="1200.00" end="1500.00" id="TLS0_my_program_InductLoopOn_2si_1" nVehContrib="38" flow="456.00" occupancy="39.98" speed="7.77" length="5.00" nVehEntered="39"/>
    <interval begin="1200.00" end="1500.00" id="TLS0_my_program_InductLoopOn_2si_2" nVehContrib="12" flow="144.00" occupancy="13.72" speed="7.92" length="5.00" nVehEntered="12"/>
    <interval begin="1200.00" end="1500.00" id="TLS0_my_program_InductLoopOn_3si_0" nVehContrib="25" flow="300.00" occupancy="20.12" speed="8.92" length="5.00" nVehEntered="28"/>
    <interval begin="1200.00" end="1500.00" id="TLS0_my_program_InductLoopOn_3si_1" nVehContrib="18" flow="216.00" occupancy="10.68" speed="8.27" length="5.00" nVehEntered="18"/>
    <interval begin="1200.00" end="1500.00" id="TLS0_my_program_InductLoopOn_3si_2" nVehContrib="8" flow="96.00" occupancy="6.37" speed="9.61" length="5.00" nVehEntered="8"/>
    <interval begin="1200.00" end="1500.00" id="TLS0_my_program_InductLoopOn_1si_0" nVehContrib="39" flow="468.00" occupancy="35.67" speed="8.85" length="5.00" nVehEntered="40"/>
    <interval begin="1200.00" end="1500.00" id="TLS0_my_program_InductLoopOn_1si_1" nVehContrib="25" flow="300.00" occupancy="21.09" speed="7.74" length="5.00" nVehEntered="26"/>
    <interval begin="1200.00" end="1500.00" id="TLS0_my_program_InductLoopOn_1si_2" nVehContrib="14" flow="168.00" occupancy="12.85" speed="9.96" length="5.00" nVehEntered="15"/>
    <interval begin="1500.00" end="1800.00" id="TLS0_my_program_InductLoopOn_4si_0" nVehContrib="18" flow="216.00" occupancy="5.89" speed="9.66" length="5.00" nVehEntered="21"/>
    <interval begin="1500.00" end="1800.00" id="TLS0_my_program_InductLoopOn_4si_1" nVehContrib="10" flow="120.00" occupancy="3.09" speed="8.34" length="5.00" nVehEntered="10"/>
    <interval begin="1500.00" end="1800.00" id="TLS0_my_program_InductLoopOn_4si_2" nVehContrib="4" flow="48.00" occupancy="0.52" speed="12.86" length="5.00" nVehEntered="4"/>
    <interval begin="1500.00" end="1800.00" id="TLS0_my_program_InductLoopOn_2si_0" nVehContrib="41" flow="492.00" occupancy="46.19" speed="8.41" length="5.00" nVehEntered="40"/>
    <interval begin="1500.00" end="1800.00" id="TLS0_my_program_InductLoopOn_2si_1" nVehContrib="33" flow="396.00" occupancy="35.82" speed="8.28" length="5.00" nVehEntered="32"/>
    <interval begin="1500.00" end="1800.00" id="TLS0_my_program_InductLoopOn_2si_2" nVehContrib="15" flow="180.00" occupancy="3.58" speed="11.22" length="5.00" nVehEntered="16"/>
    <interval begin="1500.00" end="1800.00" id="TLS0_my_program_InductLoopOn_3si_0" nVehContrib="25" flow="300.00" occupancy="29.19" speed="7.94" length="5.00" nVehEntered="28"/>
    <interval begin="1500.00" end="1800.00" id="TLS0_my_program_InductLoopOn_3si_1" nVehContrib="15" flow="180.00" occupancy="8.05" speed="7.41" length="5.00" nVehEntered="15"/>
    <interval begin="1500.00" end="1800.00" id="TLS0_my_program_InductLoopOn_3si_2" nVehContrib="10" flow="120.00" occupancy="7.00" speed="9.18" length="5.00" nVehEntered="10"/>
    <interval begin="1500.00" end="1800.00" id="TLS0_my_program_InductLoopOn_1si_0" nVehContrib="41" flow="492.00" occupancy="34.98" speed="8.45" length="5.00" nVehEntered="42"/>
    <interval begin="1500.00" end="1800.00" id="TLS0_my_program_InductLoopOn_1si_1" nVehContrib="37" flow="444.00" occupancy="27.05" speed="8.39" length="5.00" nVehEntered="36"/>
    <interval begin="1500.00" end="1800.00" id="TLS0_my_program_InductLoopOn_1si_2" nVehContrib="20" flow="240.00" occupancy="28.39" speed="8.24" length="5.00" nVehEntered="19"/>
    <interval begin="1800.00" end="2100.00" id="TLS0_my_program_InductLoopOn_4si_0" nVehContrib="27" flow="324.00" occupancy="12.46" speed="9.42" length="5.00" nVehEntered="28"/>
    <interval begin="1800.00" end="2100.00" id="TLS0_my_program_InductLoopOn_4si_1" nVehContrib="14" flow="168.00" occupancy="6.70" speed="9.28" length="5.00" nVehEntered="14"/>
    <interval begin="1800.00" end="2100.00" id="TLS0_my_program_InductLoopOn_4si_2" nVehContrib="9" flow="108.00" occupancy="1.42" speed="10.96" length="5.00" nVehEntered="9"/>
    <interval begin="1800.00" end="2100.00" id="TLS0_my_program_InductLoopOn_2si_0" nVehContrib="42" flow="504.00" occupancy="28.93" speed="8.86" length="5.00" nVehEntered="43"/>
    <interval begin="1800.00" end="2100.00" id="TLS0_my_program_InductLoopOn_2si_1" nVehContrib="35" flow="420.00" occupancy="26.80" speed="8.44" length="5.00" nVehEntered="35"/>
    <interval begin="1800.00" end="2100.00" id="TLS0_my_program_InductLoopOn_2si_2" nVehContrib="12" flow="144.00" occupancy="14.17" speed="8.33" length="5.00" nVehEntered="11"/>
    <interval begin="1800.00" end="2100.00" id="TLS0_my_program_InductLoopOn_3si_0" nVehContrib="24" flow="288.00" occupancy="24.35" speed="7.90" length="5.00" nVehEntered="24"/>
    <interval begin="1800.00" end="2100.00" id="TLS0_my_program_InductLoopOn_3si_1" nVehContrib="11" flow="132.00" occupancy="12.87" speed="7.73" length="5.00" nVehEntered="11"/>
    <interval begin="1800.00" end="2100.00" id="TLS0_my_program_InductLoopOn_3si_2" nVehContrib="7" flow="84.00" occupancy="0.97" speed="12.07" length="5.00" nVehEntered="7"/>
    <interval begin="1800.00" end="2100.00" id="TLS0_my_program_InductLoopOn_1si_0" nVehContrib="46" flow="552.00" occupancy="20.01" speed="9.68" length="5.00" nVehEntered="47"/>
    <interval begin="1800.00" end="2100.00" id="TLS0_my_program_InductLoopOn_1si_1" nVehContrib="32" flow="384.00" occupancy="13.75" speed="9.17" length="5.00" nVehEntered="32"/>
    <interval begin="1800.00" end="2100.00" id="TLS0_my_program_InductLoopOn_1si_2" nVehContrib="15" flow="180.00" occupancy="10.16" speed="10.07" length="5.00" nVehEntered="15"/>
    <interval begin="2100.00" end="2400.00" id="TLS0_my_program_InductLoopOn_4si_0" nVehContrib="21" flow="252.00" occupancy="10.12" speed="10.94" length="5.00" nVehEntered="25"/>
    <interval begin="2100.00" end="2400.00" id="TLS0_my_program_InductLoopOn_4si_1" nVehContrib="10" flow="120.00" occupancy="7.23" speed="7.83" length="5.00" nVehEntered="10"/>
    <interval begin="2100.00" end="2400.00" id="TLS0_my_program_InductLoopOn_4si_2" nVehContrib="6" flow="72.00" occupancy="0.91" speed="11.15" length="5.00" nVehEntered="6"/>
    <interval begin="2100.00" end="2400.00" id="TLS0_my_program_InductLoopOn_2si_0" nVehContrib="38" flow="456.00" occupancy="48.77" speed="7.78" length="5.00" nVehEntered="39"/>
    <interval begin="2100.00" end="2400.00" id="TLS0_my_program_InductLoopOn_2si_1" nVehContrib="35" flow="420.00" occupancy="24.78" speed="7.93" length="5.00" nVehEntered="35"/>
    <interval begin="2100.00" end="2400.00" id="TLS0_my_program_InductLoopOn_2si_2" nVehContrib="13" flow="156.00" occupancy="16.99" speed="7.64" length="5.00" nVehEntered="13"/>
    <interval begin="2100.00" end="2400.00" id="TLS0_my_program_InductLoopOn_3si_0" nVehContrib="27" flow="324.00" occupancy="21.97" speed="9.41" length="5.00" nVehEntered="27"/>
    <interval begin="2100.00" end="2400.00" id="TLS0_my_program_InductLoopOn_3si_1" nVehContrib="14" flow="168.00" occupancy="21.46" speed="8.59" length="5.00" nVehEntered="14"/>
    <interval begin="2100.00" end="2400.00" id="TLS0_my_program_InductLoopOn_3si_2" nVehContrib="7" flow="84.00" occupancy="1.05" speed="11.34" length="5.00" nVehEntered="7"/>
    <interval begin="2100.00" end="2400.00" id="TLS0_my_program_InductLoopOn_1si_0" nVehContrib="42" flow="504.00" occupancy="28.26" speed="9.31" length="5.00" nVehEntered="43"/>
    <interval begin="2100.00" end="2400.00" id="TLS0_my_program_InductLoopOn_1si_1" nVehContrib="30" flow="360.00" occupancy="23.00" speed="8.22" length="5.00" nVehEntered="30"/>
    <interval begin="2100.00" end="2400.00" id="TLS0_my_program_InductLoopOn_1si_2" nVehContrib="14" flow="168.00" occupancy="15.00" speed="9.51" length="5.00" nVehEntered="14"/>
    <interval begin="2400.00" end="2700.00" id="TLS0_my_program_InductLoopOn_4si_0" nVehContrib="19" flow="228.00" occupancy="17.92" speed="9.57" length="5.00" nVehEntered="19"/>
    <interval begin="2400.00" end="2700.00" id="TLS0_my_program_InductLoopOn_4si_1" nVehContrib="10" flow="120.00" occupancy="10.26" speed="8.55" length="5.00" nVehEntered="11"/>
    <interval begin="2400.00" end="2700.00" id="TLS0_my_program_InductLoopOn_4si_2" nVehContrib="3" flow="36.00" occupancy="0.39" speed="12.82" length="5.00" nVehEntered="3"/>
    <interval begin="2400.00" end="2700.00" id="TLS0_my_program_InductLoopOn_2si_0" nVehContrib="45" flow="540.00" occupancy="43.05" speed="9.09" length="5.00" nVehEntered="46"/>
    <interval begin="2400.00" end="2700.00" id="TLS0_my_program_InductLoopOn_2si_1" nVehContrib="36" flow="432.00" occupancy="38.98" speed="8.34" length="5.00" nVehEntered="36"/>
    <interval begin="2400.00" end="2700.00" id="TLS0_my_program_InductLoopOn_2si_2" nVehContrib="16" flow="192.00" occupancy="13.48" speed="8.42" length="5.00" nVehEntered="16"/>
    <interval begin="2400.00" end="2700.00" id="TLS0_my_program_InductLoopOn_3si_0" nVehContrib="22" flow="264.00" occupancy="24.90" speed="8.49" length="5.00" nVehEntered="26"/>
    <interval begin="2400.00" end="2700.00" id="TLS0_my_program_InductLoopOn_3si_1" nVehContrib="15" flow="180.00" occupancy="9.75" speed="8.03" length="5.00" nVehEntered="15"/>
    <interval begin="2400.00" end="2700.00" id="TLS0_my_program_InductLoopOn_3si_2" nVehContrib="6" flow="72.00" occupancy="0.99" speed="10.47" length="5.00" nVehEntered="6"/>
    <interval begin="2400.00" end="2700.00" id="TLS0_my_program_InductLoopOn_1si_0" nVehContrib="45" flow="540.00" occupancy="36.52" speed="8.85" length="5.00" nVehEntered="47"/>
    <interval begin="2400.00" end="2700.00" id="TLS0_my_program_InductLoopOn_1si_1" nVehContrib="36" flow="432.00" occupancy="26.23" speed="9.31" length="5.00" nVehEntered="36"/>
    <interval begin="2400.00" end="2700.00" id="TLS0_my_program_InductLoopOn_1si_2" nVehContrib="17" flow="204.00" occupancy="13.87" speed="8.81" length="5.00" nVehEntered="17"/>
    <interval begin="2700.00" end="3000.00" id="TLS0_my_program_InductLoopOn_4si_0" nVehContrib="27" flow="324.00" occupancy="11.86" speed="9.82" length="5.00" nVehEntered="27"/>
    <interval begin="2700.00" end="3000.00" id="TLS0_my_program_InductLoopOn_4si_1" nVehContrib="11" flow="132.00" occupancy="8.31" speed="9.33" length="5.00" nVehEntered="10"/>
    <interval begin="2700.00" end="3000.00" id="TLS0_my_program_InductLoopOn_4si_2" nVehContrib="3" flow="36.00" occupancy="0.42" speed="12.02" length="5.00" nVehEntered="3"/>
    <interval begin="2700.00" end="3000.00" id="TLS0_my_program_InductLoopOn_2si_0" nVehContrib="34" flow="408.00" occupancy="47.46" speed="8.67" length="5.00" nVehEntered="34"/>
    <interval begin="2700.00" end="3000.00" id="TLS0_my_program_InductLoopOn_2si_1" nVehContrib="31" flow="372.00" occupancy="38.33" speed="8.77" length="5.00" nVehEntered="31"/>
    <interval begin="2700.00" end="3000.00" id="TLS0_my_program_InductLoopOn_2si_2" nVehContrib="14" flow="168.00" occupancy="9.84" speed="8.89" length="5.00" nVehEntered="14"/>
    <interval begin="2700.00" end="3000.00" id="TLS0_my_program_InductLoopOn_3si_0" nVehContrib="29" flow="348.00" occupancy="37.54" speed="8.48" length="5.00" nVehEntered="30"/>
    <interval begin="2700.00" end="3000.00" id="TLS0_my_program_InductLoopOn_3si_1" nVehContrib="18" flow="216.00" occupancy="26.79" speed="8.07" length="5.00" nVehEntered="18"/>
    <interval begin="2700.00" end="3000.00" id="TLS0_my_program_InductLoopOn_3si_2" nVehContrib="6" flow="72.00" occupancy="0.81" speed="12.44" length="5.00" nVehEntered="6"/>
    <interval begin="2700.00" end="3000.00" id="TLS0_my_program_InductLoopOn_1si_0" nVehContrib="42" flow="504.00" occupancy="53.87" speed="8.46" length="5.00" nVehEntered="43"/>
    <interval begin="2700.00" end="3000.00" id="TLS0_my_program_InductLoopOn_1si_1" nVehContrib="33" flow="396.00" occupancy="46.93" speed="7.67" length="5.00" nVehEntered="33"/>
    <interval begin="2700.00" end="3000.00" id="TLS0_my_program_InductLoopOn_1si_2" nVehContrib="20" flow="240.00" occupancy="19.36" speed="9.64" length="5.00" nVehEntered="20"/>
    <interval begin="3000.00" end="3300.00" id="TLS0_my_program_InductLoopOn_4si_0" nVehContrib="23" flow="276.00" occupancy="29.00" speed="8.92" length="5.00" nVehEntered="27"/>
    <interval begin="3000.00" end="3300.00" id="TLS0_my_program_InductLoopOn_4si_1" nVehContrib="16" flow="192.00" occupancy="13.96" speed="8.26" length="5.00" nVehEntered="17"/>
    <interval begin="3000.00" end="3300.00" id="TLS0_my_program_InductLoopOn_4si_2" nVehContrib="11" flow="132.00" occupancy="7.52" speed="9.03" length="5.00" nVehEntered="11"/>
    <interval begin="3000.00" end="3300.00" id="TLS0_my_program_InductLoopOn_2si_0" nVehContrib="45" flow="540.00" occupancy="33.75" speed="9.35" length="5.00" nVehEntered="47"/>
    <interval begin="3000.00" end="3300.00" id="TLS0_my_program_InductLoopOn_2si_1" nVehContrib="33" flow="396.00" occupancy="27.31" speed="9.04" length="5.00" nVehEntered="33"/>
    <interval begin="3000.00" end="3300.00" id="TLS0_my_program_InductLoopOn_2si_2" nVehContrib="18" flow="216.00" occupancy="21.54" speed="7.96" length="5.00" nVehEntered="18"/>
    <interval begin="3000.00" end="3300.00" id="TLS0_my_program_InductLoopOn_3si_0" nVehContrib="21" flow="252.00" occupancy="20.87" speed="8.44" length="5.00" nVehEntered="24"/>
    <interval begin="3000.00" end="3300.00" id="TLS0_my_program_InductLoopOn_3si_1" nVehContrib="11" flow="132.00" occupancy="2.70" speed="9.24" length="5.00" nVehEntered="12"/>
    <interval begin="3000.00" end="3300.00" id="TLS0_my_program_InductLoopOn_3si_2" nVehContrib="11" flow="132.00" occupancy="8.16" speed="10.10" length="5.00" nVehEntered="11"/>
    <interval begin="3000.00" end="3300.00" id="TLS0_my_program_InductLoopOn_1si_0" nVehContrib="42" flow="504.00" occupancy="45.23" speed="8.51" length="5.00" nVehEntered="42"/>
    <interval begin="3000.00" end="3300.00" id="TLS0_my_program_InductLoopOn_1si_1" nVehContrib="37" flow="444.00" occupancy="43.75" speed="8.67" length="5.00" nVehEntered="37"/>
    <interval begin="3000.00" end="3300.00" id="TLS0_my_program_InductLoopOn_1si_2" nVehContrib="12" flow="144.00" occupancy="2.68" speed="10.25" length="5.00" nVehEntered="12"/>
    <interval begin="3300.00" end="3600.00" id="TLS0_my_program_InductLoopOn_4si_0" nVehContrib="25" flow="300.00" occupancy="23.42" speed="7.94" length="5.00" nVehEntered="28"/>
    <interval begin="3300.00" end="3600.00" id="TLS0_my_program_InductLoopOn_4si_1" nVehContrib="18" flow="216.00" occupancy="17.95" speed="6.48" length="5.00" nVehEntered="17"/>
    <interval begin="3300.00" end="3600.00" id="TLS0_my_program_InductLoopOn_4si_2" nVehContrib="11" flow="132.00" occupancy="1.85" speed="10.83" length="5.00" nVehEntered="11"/>
    <interval begin="3300.00" end="3600.00" id="TLS0_my_program_InductLoopOn_2si_0" nVehContrib="52" flow="624.00" occupancy="38.96" speed="9.12" length="5.00" nVehEntered="53"/>
    <interval begin="3300.00" end="3600.00" id="TLS0_my_program_InductLoopOn_2si_1" nVehContrib="41" flow="492.00" occupancy="37.42" speed="8.36" length="5.00" nVehEntered="41"/>
    <interval begin="3300.00" end="3600.00" id="TLS0_my_program_InductLoopOn_2si_2" nVehContrib="13" flow="156.00" occupancy="6.84" speed="11.03" length="5.00" nVehEntered="14"/>
    <interval begin="3300.00" end="3600.00" id="TLS0_my_program_InductLoopOn_3si_0" nVehContrib="27" flow="324.00" occupancy="25.56" speed="8.03" length="5.00" nVehEntered="28"/>
    <interval begin="3300.00" end="3600.00" id="TLS0_my_program_InductLoopOn_3si_1" nVehContrib="18" flow="216.00" occupancy="15.95" speed="8.57" length="5.00" nVehEntered="17"/>
    <interval begin="3300.00" end="3600.00" id="TLS0_my_program_InductLoopOn_3si_2" nVehContrib="7" flow="84.00" occupancy="1.03" speed="11.86" length="5.00" nVehEntered="7"/>
    <interval begin="3300.00" end="3600.00" id="TLS0_my_program_InductLoopOn_1si_0" nVehContrib="41" flow="492.00" occupancy="34.14" speed="9.76" length="5.00" nVehEntered="42"/>
    <interval begin="3300.00" end="3600.00" id="TLS0_my_program_InductLoopOn_1si_1" nVehContrib="20" flow="240.00" occupancy="20.42" speed="7.85" length="5.00" nVehEntered="21"/>
    <interval begin="3300.00" end="3600.00" id="TLS0_my_program_InductLoopOn_1si_2" nVehContrib="11" flow="132.00" occupancy="13.31" speed="9.16" length="5.00" nVehEntered="12"/>
    <interval begin="3600.00" end="3746.00" id="TLS0_my_program_InductLoopOn_4si_0" nVehContrib="3" flow="73.97" occupancy="8.45" speed="5.10" length="5.00" nVehEntered="3"/>
    <interval begin="3600.00" end="3746.00" id="TLS0_my_program_InductLoopOn_4si_1" nVehContrib="1" flow="24.66" occupancy="3.92" speed="0.87" length="5.00" nVehEntered="1"/>
    <interval begin="3600.00" end="3746.00" id="TLS0_my_program_InductLoopOn_4si_2" nVehContrib="1" flow="24.66" occupancy="0.26" speed="13.03" length="5.00" nVehEntered="1"/>
    <interval begin="3600.00" end="3746.00" id="TLS0_my_program_InductLoopOn_2si_0" nVehContrib="5" flow="123.29" occupancy="22.15" speed="6.79" length="5.00" nVehEntered="5"/>
    <interval begin="3600.00" end="3746.00" id="TLS0_my_program_InductLoopOn_2si_1" nVehContrib="4" flow="98.63" occupancy="22.89" speed="8.46" length="5.00" nVehEntered="4"/>
    <interval begin="3600.00" end="3746.00" id="TLS0_my_program_InductLoopOn_2si_2" nVehContrib="5" flow="123.29" occupancy="6.10" speed="7.03" length="5.00" nVehEntered="4"/>
    <interval begin="3600.00" end="3746.00" id="TLS0_my_program_InductLoopOn_3si_0" nVehContrib="3" flow="73.97" occupancy="19.70" speed="5.57" length="5.00" nVehEntered="2"/>
    <interval begin="3600.00" end="3746.00" id="TLS0_my_program_InductLoopOn_3si_1" nVehContrib="2" flow="49.32" occupancy="1.12" speed="6.50" length="5.00" nVehEntered="2"/>
    <interval begin="3600.00" end="3746.00" id="TLS0_my_program_InductLoopOn_3si_2" nVehContrib="1" flow="24.66" occupancy="0.24" speed="14.42" length="5.00" nVehEntered="1"/>
    <interval begin="3600.00" end="3746.00" id="TLS0_my_program_InductLoopOn_1si_0" nVehContrib="3" flow="73.97" occupancy="0.96" speed="10.83" length="5.00" nVehEntered="4"/>
    <interval begin="3600.00" end="3746.00" id="TLS0_my_program_InductLoopOn_1si_1" nVehContrib="3" flow="73.97" occupancy="1.63" speed="9.37" length="5.00" nVehEntered="3"/>
    <interval begin="3600.00" end="3746.00" id="TLS0_my_program_InductLoopOn_1si_2" nVehContrib="6" flow="147.95" occupancy="6.49" speed="7.58" length="5.00" nVehEntered="5"/>
</detector>
