<?xml version="1.0" encoding="UTF-8"?>

<!-- generated on 03/23/19 15:50:35 by Eclipse SUMO GUI Version 1.1.0
<configuration xmlns:xsi="http://www.w3.org/2001/XMLSchema-instance" xsi:noNamespaceSchemaLocation="http://sumo.dlr.de/xsd/sumoConfiguration.xsd">

    <input>
        <net-file value="data/net.net.xml"/>
        <route-files value="data/net.rou.xml"/>
    </input>

    <output>
        <tripinfo-output value="tripinfo.xml"/>
    </output>

    <time>
        <begin value="0"/>
    </time>

    <report>
        <verbose value="true"/>
        <no-step-log value="true"/>
    </report>

    <traci_server>
        <remote-port value="59343"/>
    </traci_server>

</configuration>
-->

<detector xmlns:xsi="http://www.w3.org/2001/XMLSchema-instance" xsi:noNamespaceSchemaLocation="http://sumo.dlr.de/xsd/det_e1_file.xsd">
    <interval begin="0.00" end="300.00" id="TLS0_my_program_InductLoopOn_4si_0" nVehContrib="31" flow="372.00" occupancy="36.43" speed="8.36" length="5.00" nVehEntered="33"/>
    <interval begin="0.00" end="300.00" id="TLS0_my_program_InductLoopOn_4si_1" nVehContrib="21" flow="252.00" occupancy="29.28" speed="6.84" length="5.00" nVehEntered="21"/>
    <interval begin="0.00" end="300.00" id="TLS0_my_program_InductLoopOn_4si_2" nVehContrib="7" flow="84.00" occupancy="0.99" speed="12.35" length="5.00" nVehEntered="7"/>
    <interval begin="0.00" end="300.00" id="TLS0_my_program_InductLoopOn_2si_0" nVehContrib="40" flow="480.00" occupancy="36.73" speed="8.98" length="5.00" nVehEntered="42"/>
    <interval begin="0.00" end="300.00" id="TLS0_my_program_InductLoopOn_2si_1" nVehContrib="33" flow="396.00" occupancy="23.54" speed="8.79" length="5.00" nVehEntered="34"/>
    <interval begin="0.00" end="300.00" id="TLS0_my_program_InductLoopOn_2si_2" nVehContrib="15" flow="180.00" occupancy="22.90" speed="8.71" length="5.00" nVehEntered="15"/>
    <interval begin="0.00" end="300.00" id="TLS0_my_program_InductLoopOn_3si_0" nVehContrib="22" flow="264.00" occupancy="22.39" speed="10.18" length="5.00" nVehEntered="22"/>
    <interval begin="0.00" end="300.00" id="TLS0_my_program_InductLoopOn_3si_1" nVehContrib="12" flow="144.00" occupancy="6.70" speed="9.70" length="5.00" nVehEntered="12"/>
    <interval begin="0.00" end="300.00" id="TLS0_my_program_InductLoopOn_3si_2" nVehContrib="7" flow="84.00" occupancy="0.98" speed="12.40" length="5.00" nVehEntered="7"/>
    <interval begin="0.00" end="300.00" id="TLS0_my_program_InductLoopOn_1si_0" nVehContrib="41" flow="492.00" occupancy="45.56" speed="9.63" length="5.00" nVehEntered="42"/>
    <interval begin="0.00" end="300.00" id="TLS0_my_program_InductLoopOn_1si_1" nVehContrib="38" flow="456.00" occupancy="38.25" speed="8.87" length="5.00" nVehEntered="39"/>
    <interval begin="0.00" end="300.00" id="TLS0_my_program_InductLoopOn_1si_2" nVehContrib="16" flow="192.00" occupancy="14.42" speed="8.99" length="5.00" nVehEntered="16"/>
    <interval begin="300.00" end="600.00" id="TLS0_my_program_InductLoopOn_4si_0" nVehContrib="25" flow="300.00" occupancy="46.84" speed="7.83" length="5.00" nVehEntered="25"/>
    <interval begin="300.00" end="600.00" id="TLS0_my_program_InductLoopOn_4si_1" nVehContrib="17" flow="204.00" occupancy="42.05" speed="6.55" length="5.00" nVehEntered="17"/>
    <interval begin="300.00" end="600.00" id="TLS0_my_program_InductLoopOn_4si_2" nVehContrib="15" flow="180.00" occupancy="28.69" speed="8.05" length="5.00" nVehEntered="15"/>
    <interval begin="300.00" end="600.00" id="TLS0_my_program_InductLoopOn_2si_0" nVehContrib="47" flow="564.00" occupancy="49.08" speed="8.73" length="5.00" nVehEntered="48"/>
    <interval begin="300.00" end="600.00" id="TLS0_my_program_InductLoopOn_2si_1" nVehContrib="44" flow="528.00" occupancy="42.56" speed="9.02" length="5.00" nVehEntered="43"/>
    <interval begin="300.00" end="600.00" id="TLS0_my_program_InductLoopOn_2si_2" nVehContrib="19" flow="228.00" occupancy="24.57" speed="9.37" length="5.00" nVehEntered="19"/>
    <interval begin="300.00" end="600.00" id="TLS0_my_program_InductLoopOn_3si_0" nVehContrib="26" flow="312.00" occupancy="43.06" speed="8.13" length="5.00" nVehEntered="29"/>
    <interval begin="300.00" end="600.00" id="TLS0_my_program_InductLoopOn_3si_1" nVehContrib="22" flow="264.00" occupancy="27.83" speed="7.84" length="5.00" nVehEntered="22"/>
    <interval begin="300.00" end="600.00" id="TLS0_my_program_InductLoopOn_3si_2" nVehContrib="9" flow="108.00" occupancy="9.04" speed="9.46" length="5.00" nVehEntered="9"/>
    <interval begin="300.00" end="600.00" id="TLS0_my_program_InductLoopOn_1si_0" nVehContrib="52" flow="624.00" occupancy="53.23" speed="9.07" length="5.00" nVehEntered="52"/>
    <interval begin="300.00" end="600.00" id="TLS0_my_program_InductLoopOn_1si_1" nVehContrib="43" flow="516.00" occupancy="48.50" speed="8.33" length="5.00" nVehEntered="42"/>
    <interval begin="300.00" end="600.00" id="TLS0_my_program_InductLoopOn_1si_2" nVehContrib="19" flow="228.00" occupancy="16.42" speed="10.04" length="5.00" nVehEntered="20"/>
    <interval begin="600.00" end="900.00" id="TLS0_my_program_InductLoopOn_4si_0" nVehContrib="25" flow="300.00" occupancy="40.12" speed="8.65" length="5.00" nVehEntered="29"/>
    <interval begin="600.00" end="900.00" id="TLS0_my_program_InductLoopOn_4si_1" nVehContrib="15" flow="180.00" occupancy="26.80" speed="7.44" length="5.00" nVehEntered="16"/>
    <interval begin="600.00" end="900.00" id="TLS0_my_program_InductLoopOn_4si_2" nVehContrib="11" flow="132.00" occupancy="8.40" speed="9.29" length="5.00" nVehEntered="11"/>
    <interval begin="600.00" end="900.00" id="TLS0_my_program_InductLoopOn_2si_0" nVehContrib="55" flow="660.00" occupancy="50.70" speed="9.25" length="5.00" nVehEntered="54"/>
    <interval begin="600.00" end="900.00" id="TLS0_my_program_InductLoopOn_2si_1" nVehContrib="47" flow="564.00" occupancy="42.65" speed="9.00" length="5.00" nVehEntered="47"/>
    <interval begin="600.00" end="900.00" id="TLS0_my_program_InductLoopOn_2si_2" nVehContrib="18" flow="216.00" occupancy="33.12" speed="8.18" length="5.00" nVehEntered="19"/>
    <interval begin="600.00" end="900.00" id="TLS0_my_program_InductLoopOn_3si_0" nVehContrib="31" flow="372.00" occupancy="46.85" speed="8.36" length="5.00" nVehEntered="32"/>
    <interval begin="600.00" end="900.00" id="TLS0_my_program_InductLoopOn_3si_1" nVehContrib="25" flow="300.00" occupancy="41.63" speed="7.75" length="5.00" nVehEntered="26"/>
    <interval begin="600.00" end="900.00" id="TLS0_my_program_InductLoopOn_3si_2" nVehContrib="9" flow="108.00" occupancy="7.19" speed="9.76" length="5.00" nVehEntered="9"/>
    <interval begin="600.00" end="900.00" id="TLS0_my_program_InductLoopOn_1si_0" nVehContrib="52" flow="624.00" occupancy="54.54" speed="9.52" length="5.00" nVehEntered="52"/>
    <interval begin="600.00" end="900.00" id="TLS0_my_program_InductLoopOn_1si_1" nVehContrib="49" flow="588.00" occupancy="43.92" speed="9.31" length="5.00" nVehEntered="49"/>
    <interval begin="600.00" end="900.00" id="TLS0_my_program_InductLoopOn_1si_2" nVehContrib="16" flow="192.00" occupancy="35.33" speed="8.07" length="5.00" nVehEntered="16"/>
    <interval begin="900.00" end="1200.00" id="TLS0_my_program_InductLoopOn_4si_0" nVehContrib="20" flow="240.00" occupancy="44.61" speed="8.07" length="5.00" nVehEntered="21"/>
    <interval begin="900.00" end="1200.00" id="TLS0_my_program_InductLoopOn_4si_1" nVehContrib="16" flow="192.00" occupancy="26.89" speed="7.92" length="5.00" nVehEntered="16"/>
    <interval begin="900.00" end="1200.00" id="TLS0_my_program_InductLoopOn_4si_2" nVehContrib="14" flow="168.00" occupancy="18.33" speed="8.43" length="5.00" nVehEntered="14"/>
    <interval begin="900.00" end="1200.00" id="TLS0_my_program_InductLoopOn_2si_0" nVehContrib="47" flow="564.00" occupancy="51.95" speed="9.00" length="5.00" nVehEntered="48"/>
    <interval begin="900.00" end="1200.00" id="TLS0_my_program_InductLoopOn_2si_1" nVehContrib="45" flow="540.00" occupancy="49.85" speed="8.86" length="5.00" nVehEntered="45"/>
    <interval begin="900.00" end="1200.00" id="TLS0_my_program_InductLoopOn_2si_2" nVehContrib="24" flow="288.00" occupancy="31.70" speed="7.62" length="5.00" nVehEntered="23"/>
    <interval begin="900.00" end="1200.00" id="TLS0_my_program_InductLoopOn_3si_0" nVehContrib="21" flow="252.00" occupancy="25.87" speed="9.12" length="5.00" nVehEntered="22"/>
    <interval begin="900.00" end="1200.00" id="TLS0_my_program_InductLoopOn_3si_1" nVehContrib="13" flow="156.00" occupancy="18.72" speed="8.16" length="5.00" nVehEntered="13"/>
    <interval begin="900.00" end="1200.00" id="TLS0_my_program_InductLoopOn_3si_2" nVehContrib="15" flow="180.00" occupancy="20.99" speed="7.31" length="5.00" nVehEntered="15"/>
    <interval begin="900.00" end="1200.00" id="TLS0_my_program_InductLoopOn_1si_0" nVehContrib="49" flow="588.00" occupancy="54.37" speed="9.11" length="5.00" nVehEntered="49"/>
    <interval begin="900.00" end="1200.00" id="TLS0_my_program_InductLoopOn_1si_1" nVehContrib="41" flow="492.00" occupancy="47.04" speed="8.52" length="5.00" nVehEntered="41"/>
    <interval begin="900.00" end="1200.00" id="TLS0_my_program_InductLoopOn_1si_2" nVehContrib="19" flow="228.00" occupancy="14.56" speed="8.52" length="5.00" nVehEntered="18"/>
    <interval begin="1200.00" end="1500.00" id="TLS0_my_program_InductLoopOn_4si_0" nVehContrib="26" flow="312.00" occupancy="35.40" speed="7.85" length="5.00" nVehEntered="28"/>
    <interval begin="1200.00" end="1500.00" id="TLS0_my_program_InductLoopOn_4si_1" nVehContrib="23" flow="276.00" occupancy="26.88" speed="6.93" length="5.00" nVehEntered="22"/>
    <interval begin="1200.00" end="1500.00" id="TLS0_my_program_InductLoopOn_4si_2" nVehContrib="15" flow="180.00" occupancy="18.52" speed="8.34" length="5.00" nVehEntered="15"/>
    <interval begin="1200.00" end="1500.00" id="TLS0_my_program_InductLoopOn_2si_0" nVehContrib="46" flow="552.00" occupancy="61.45" speed="9.34" length="5.00" nVehEntered="48"/>
    <interval begin="1200.00" end="1500.00" id="TLS0_my_program_InductLoopOn_2si_1" nVehContrib="46" flow="552.00" occupancy="61.65" speed="9.19" length="5.00" nVehEntered="47"/>
    <interval begin="1200.00" end="1500.00" id="TLS0_my_program_InductLoopOn_2si_2" nVehContrib="22" flow="264.00" occupancy="48.89" speed="7.64" length="5.00" nVehEntered="22"/>
    <interval begin="1200.00" end="1500.00" id="TLS0_my_program_InductLoopOn_3si_0" nVehContrib="26" flow="312.00" occupancy="43.80" speed="7.77" length="5.00" nVehEntered="26"/>
    <interval begin="1200.00" end="1500.00" id="TLS0_my_program_InductLoopOn_3si_1" nVehContrib="23" flow="276.00" occupancy="32.81" speed="7.20" length="5.00" nVehEntered="23"/>
    <interval begin="1200.00" end="1500.00" id="TLS0_my_program_InductLoopOn_3si_2" nVehContrib="8" flow="96.00" occupancy="20.81" speed="8.83" length="5.00" nVehEntered="8"/>
    <interval begin="1200.00" end="1500.00" id="TLS0_my_program_InductLoopOn_1si_0" nVehContrib="44" flow="528.00" occupancy="56.73" speed="9.43" length="5.00" nVehEntered="45"/>
    <interval begin="1200.00" end="1500.00" id="TLS0_my_program_InductLoopOn_1si_1" nVehContrib="39" flow="468.00" occupancy="49.89" speed="8.47" length="5.00" nVehEntered="40"/>
    <interval begin="1200.00" end="1500.00" id="TLS0_my_program_InductLoopOn_1si_2" nVehContrib="20" flow="240.00" occupancy="21.01" speed="8.67" length="5.00" nVehEntered="20"/>
    <interval begin="1500.00" end="1800.00" id="TLS0_my_program_InductLoopOn_4si_0" nVehContrib="26" flow="312.00" occupancy="40.56" speed="8.03" length="5.00" nVehEntered="27"/>
    <interval begin="1500.00" end="1800.00" id="TLS0_my_program_InductLoopOn_4si_1" nVehContrib="20" flow="240.00" occupancy="27.08" speed="7.81" length="5.00" nVehEntered="20"/>
    <interval begin="1500.00" end="1800.00" id="TLS0_my_program_InductLoopOn_4si_2" nVehContrib="6" flow="72.00" occupancy="0.93" speed="10.87" length="5.00" nVehEntered="6"/>
    <interval begin="1500.00" end="1800.00" id="TLS0_my_program_InductLoopOn_2si_0" nVehContrib="46" flow="552.00" occupancy="58.13" speed="9.37" length="5.00" nVehEntered="46"/>
    <interval begin="1500.00" end="1800.00" id="TLS0_my_program_InductLoopOn_2si_1" nVehContrib="41" flow="492.00" occupancy="47.54" speed="8.56" length="5.00" nVehEntered="41"/>
    <interval begin="1500.00" end="1800.00" id="TLS0_my_program_InductLoopOn_2si_2" nVehContrib="15" flow="180.00" occupancy="23.93" speed="8.91" length="5.00" nVehEntered="16"/>
    <interval begin="1500.00" end="1800.00" id="TLS0_my_program_InductLoopOn_3si_0" nVehContrib="27" flow="324.00" occupancy="39.31" speed="8.51" length="5.00" nVehEntered="30"/>
    <interval begin="1500.00" end="1800.00" id="TLS0_my_program_InductLoopOn_3si_1" nVehContrib="20" flow="240.00" occupancy="20.04" speed="8.11" length="5.00" nVehEntered="19"/>
    <interval begin="1500.00" end="1800.00" id="TLS0_my_program_InductLoopOn_3si_2" nVehContrib="12" flow="144.00" occupancy="9.58" speed="8.25" length="5.00" nVehEntered="12"/>
    <interval begin="1500.00" end="1800.00" id="TLS0_my_program_InductLoopOn_1si_0" nVehContrib="45" flow="540.00" occupancy="55.32" speed="8.92" length="5.00" nVehEntered="46"/>
    <interval begin="1500.00" end="1800.00" id="TLS0_my_program_InductLoopOn_1si_1" nVehContrib="42" flow="504.00" occupancy="49.34" speed="9.39" length="5.00" nVehEntered="42"/>
    <interval begin="1500.00" end="1800.00" id="TLS0_my_program_InductLoopOn_1si_2" nVehContrib="22" flow="264.00" occupancy="24.82" speed="8.29" length="5.00" nVehEntered="22"/>
    <interval begin="1800.00" end="2100.00" id="TLS0_my_program_InductLoopOn_4si_0" nVehContrib="26" flow="312.00" occupancy="34.42" speed="8.95" length="5.00" nVehEntered="28"/>
    <interval begin="1800.00" end="2100.00" id="TLS0_my_program_InductLoopOn_4si_1" nVehContrib="21" flow="252.00" occupancy="26.49" speed="8.09" length="5.00" nVehEntered="22"/>
    <interval begin="1800.00" end="2100.00" id="TLS0_my_program_InductLoopOn_4si_2" nVehContrib="13" flow="156.00" occupancy="9.12" speed="8.59" length="5.00" nVehEntered="13"/>
    <interval begin="1800.00" end="2100.00" id="TLS0_my_program_InductLoopOn_2si_0" nVehContrib="57" flow="684.00" occupancy="63.05" speed="8.64" length="5.00" nVehEntered="56"/>
    <interval begin="1800.00" end="2100.00" id="TLS0_my_program_InductLoopOn_2si_1" nVehContrib="54" flow="648.00" occupancy="63.01" speed="8.50" length="5.00" nVehEntered="53"/>
    <interval begin="1800.00" end="2100.00" id="TLS0_my_program_InductLoopOn_2si_2" nVehContrib="18" flow="216.00" occupancy="21.86" speed="8.18" length="5.00" nVehEntered="17"/>
    <interval begin="1800.00" end="2100.00" id="TLS0_my_program_InductLoopOn_3si_0" nVehContrib="25" flow="300.00" occupancy="52.69" speed="7.82" length="5.00" nVehEntered="26"/>
    <interval begin="1800.00" end="2100.00" id="TLS0_my_program_InductLoopOn_3si_1" nVehContrib="20" flow="240.00" occupancy="33.44" speed="8.17" length="5.00" nVehEntered="20"/>
    <interval begin="1800.00" end="2100.00" id="TLS0_my_program_InductLoopOn_3si_2" nVehContrib="7" flow="84.00" occupancy="1.12" speed="10.64" length="5.00" nVehEntered="7"/>
    <interval begin="1800.00" end="2100.00" id="TLS0_my_program_InductLoopOn_1si_0" nVehContrib="53" flow="636.00" occupancy="52.97" speed="8.81" length="5.00" nVehEntered="52"/>
    <interval begin="1800.00" end="2100.00" id="TLS0_my_program_InductLoopOn_1si_1" nVehContrib="44" flow="528.00" occupancy="42.29" speed="8.38" length="5.00" nVehEntered="43"/>
    <interval begin="1800.00" end="2100.00" id="TLS0_my_program_InductLoopOn_1si_2" nVehContrib="23" flow="276.00" occupancy="34.66" speed="8.31" length="5.00" nVehEntered="23"/>
    <interval begin="2100.00" end="2400.00" id="TLS0_my_program_InductLoopOn_4si_0" nVehContrib="26" flow="312.00" occupancy="38.78" speed="8.56" length="5.00" nVehEntered="28"/>
    <interval begin="2100.00" end="2400.00" id="TLS0_my_program_InductLoopOn_4si_1" nVehContrib="17" flow="204.00" occupancy="25.15" speed="6.78" length="5.00" nVehEntered="16"/>
    <interval begin="2100.00" end="2400.00" id="TLS0_my_program_InductLoopOn_4si_2" nVehContrib="11" flow="132.00" occupancy="17.66" speed="9.07" length="5.00" nVehEntered="11"/>
    <interval begin="2100.00" end="2400.00" id="TLS0_my_program_InductLoopOn_2si_0" nVehContrib="45" flow="540.00" occupancy="48.60" speed="9.44" length="5.00" nVehEntered="48"/>
    <interval begin="2100.00" end="2400.00" id="TLS0_my_program_InductLoopOn_2si_1" nVehContrib="40" flow="480.00" occupancy="35.44" speed="8.70" length="5.00" nVehEntered="41"/>
    <interval begin="2100.00" end="2400.00" id="TLS0_my_program_InductLoopOn_2si_2" nVehContrib="15" flow="180.00" occupancy="14.55" speed="7.86" length="5.00" nVehEntered="15"/>
    <interval begin="2100.00" end="2400.00" id="TLS0_my_program_InductLoopOn_3si_0" nVehContrib="30" flow="360.00" occupancy="39.67" speed="7.84" length="5.00" nVehEntered="34"/>
    <interval begin="2100.00" end="2400.00" id="TLS0_my_program_InductLoopOn_3si_1" nVehContrib="24" flow="288.00" occupancy="21.45" speed="7.15" length="5.00" nVehEntered="24"/>
    <interval begin="2100.00" end="2400.00" id="TLS0_my_program_InductLoopOn_3si_2" nVehContrib="7" flow="84.00" occupancy="13.87" speed="11.11" length="5.00" nVehEntered="8"/>
    <interval begin="2100.00" end="2400.00" id="TLS0_my_program_InductLoopOn_1si_0" nVehContrib="42" flow="504.00" occupancy="48.73" speed="9.29" length="5.00" nVehEntered="45"/>
    <interval begin="2100.00" end="2400.00" id="TLS0_my_program_InductLoopOn_1si_1" nVehContrib="40" flow="480.00" occupancy="42.90" speed="8.88" length="5.00" nVehEntered="41"/>
    <interval begin="2100.00" end="2400.00" id="TLS0_my_program_InductLoopOn_1si_2" nVehContrib="24" flow="288.00" occupancy="35.93" speed="7.92" length="5.00" nVehEntered="24"/>
    <interval begin="2400.00" end="2700.00" id="TLS0_my_program_InductLoopOn_4si_0" nVehContrib="26" flow="312.00" occupancy="20.59" speed="8.90" length="5.00" nVehEntered="28"/>
    <interval begin="2400.00" end="2700.00" id="TLS0_my_program_InductLoopOn_4si_1" nVehContrib="17" flow="204.00" occupancy="18.17" speed="7.71" length="5.00" nVehEntered="17"/>
    <interval begin="2400.00" end="2700.00" id="TLS0_my_program_InductLoopOn_4si_2" nVehContrib="6" flow="72.00" occupancy="0.86" speed="11.87" length="5.00" nVehEntered="6"/>
    <interval begin="2400.00" end="2700.00" id="TLS0_my_program_InductLoopOn_2si_0" nVehContrib="50" flow="600.00" occupancy="55.08" speed="8.60" length="5.00" nVehEntered="49"/>
    <interval begin="2400.00" end="2700.00" id="TLS0_my_program_InductLoopOn_2si_1" nVehContrib="46" flow="552.00" occupancy="51.37" speed="8.75" length="5.00" nVehEntered="45"/>
    <interval begin="2400.00" end="2700.00" id="TLS0_my_program_InductLoopOn_2si_2" nVehContrib="19" flow="228.00" occupancy="29.28" speed="8.81" length="5.00" nVehEntered="19"/>
    <interval begin="2400.00" end="2700.00" id="TLS0_my_program_InductLoopOn_3si_0" nVehContrib="28" flow="336.00" occupancy="38.21" speed="8.82" length="5.00" nVehEntered="28"/>
    <interval begin="2400.00" end="2700.00" id="TLS0_my_program_InductLoopOn_3si_1" nVehContrib="19" flow="228.00" occupancy="30.73" speed="7.62" length="5.00" nVehEntered="19"/>
    <interval begin="2400.00" end="2700.00" id="TLS0_my_program_InductLoopOn_3si_2" nVehContrib="11" flow="132.00" occupancy="7.79" speed="8.53" length="5.00" nVehEntered="10"/>
    <interval begin="2400.00" end="2700.00" id="TLS0_my_program_InductLoopOn_1si_0" nVehContrib="51" flow="612.00" occupancy="58.20" speed="8.47" length="5.00" nVehEntered="51"/>
    <interval begin="2400.00" end="2700.00" id="TLS0_my_program_InductLoopOn_1si_1" nVehContrib="48" flow="576.00" occupancy="55.33" speed="8.38" length="5.00" nVehEntered="48"/>
    <interval begin="2400.00" end="2700.00" id="TLS0_my_program_InductLoopOn_1si_2" nVehContrib="18" flow="216.00" occupancy="22.04" speed="8.40" length="5.00" nVehEntered="19"/>
    <interval begin="2700.00" end="3000.00" id="TLS0_my_program_InductLoopOn_4si_0" nVehContrib="24" flow="288.00" occupancy="41.22" speed="7.54" length="5.00" nVehEntered="26"/>
    <interval begin="2700.00" end="3000.00" id="TLS0_my_program_InductLoopOn_4si_1" nVehContrib="20" flow="240.00" occupancy="39.94" speed="7.46" length="5.00" nVehEntered="20"/>
    <interval begin="2700.00" end="3000.00" id="TLS0_my_program_InductLoopOn_4si_2" nVehContrib="4" flow="48.00" occupancy="0.53" speed="12.68" length="5.00" nVehEntered="4"/>
    <interval begin="2700.00" end="3000.00" id="TLS0_my_program_InductLoopOn_2si_0" nVehContrib="47" flow="564.00" occupancy="51.58" speed="8.90" length="5.00" nVehEntered="48"/>
    <interval begin="2700.00" end="3000.00" id="TLS0_my_program_InductLoopOn_2si_1" nVehContrib="42" flow="504.00" occupancy="45.09" speed="8.47" length="5.00" nVehEntered="42"/>
    <interval begin="2700.00" end="3000.00" id="TLS0_my_program_InductLoopOn_2si_2" nVehContrib="18" flow="216.00" occupancy="33.71" speed="8.29" length="5.00" nVehEntered="18"/>
    <interval begin="2700.00" end="3000.00" id="TLS0_my_program_InductLoopOn_3si_0" nVehContrib="32" flow="384.00" occupancy="50.72" speed="8.85" length="5.00" nVehEntered="34"/>
    <interval begin="2700.00" end="3000.00" id="TLS0_my_program_InductLoopOn_3si_1" nVehContrib="22" flow="264.00" occupancy="41.61" speed="7.24" length="5.00" nVehEntered="22"/>
    <interval begin="2700.00" end="3000.00" id="TLS0_my_program_InductLoopOn_3si_2" nVehContrib="9" flow="108.00" occupancy="2.16" speed="10.43" length="5.00" nVehEntered="9"/>
    <interval begin="2700.00" end="3000.00" id="TLS0_my_program_InductLoopOn_1si_0" nVehContrib="49" flow="588.00" occupancy="56.01" speed="9.07" length="5.00" nVehEntered="50"/>
    <interval begin="2700.00" end="3000.00" id="TLS0_my_program_InductLoopOn_1si_1" nVehContrib="45" flow="540.00" occupancy="50.88" speed="8.89" length="5.00" nVehEntered="44"/>
    <interval begin="2700.00" end="3000.00" id="TLS0_my_program_InductLoopOn_1si_2" nVehContrib="28" flow="336.00" occupancy="62.77" speed="8.07" length="5.00" nVehEntered="27"/>
    <interval begin="3000.00" end="3300.00" id="TLS0_my_program_InductLoopOn_4si_0" nVehContrib="22" flow="264.00" occupancy="46.05" speed="7.35" length="5.00" nVehEntered="24"/>
    <interval begin="3000.00" end="3300.00" id="TLS0_my_program_InductLoopOn_4si_1" nVehContrib="21" flow="252.00" occupancy="32.22" speed="7.85" length="5.00" nVehEntered="22"/>
    <interval begin="3000.00" end="3300.00" id="TLS0_my_program_InductLoopOn_4si_2" nVehContrib="13" flow="156.00" occupancy="7.67" speed="10.26" length="5.00" nVehEntered="13"/>
    <interval begin="3000.00" end="3300.00" id="TLS0_my_program_InductLoopOn_2si_0" nVehContrib="52" flow="624.00" occupancy="54.68" speed="9.38" length="5.00" nVehEntered="53"/>
    <interval begin="3000.00" end="3300.00" id="TLS0_my_program_InductLoopOn_2si_1" nVehContrib="45" flow="540.00" occupancy="50.18" speed="8.72" length="5.00" nVehEntered="45"/>
    <interval begin="3000.00" end="3300.00" id="TLS0_my_program_InductLoopOn_2si_2" nVehContrib="22" flow="264.00" occupancy="38.90" speed="7.21" length="5.00" nVehEntered="22"/>
    <interval begin="3000.00" end="3300.00" id="TLS0_my_program_InductLoopOn_3si_0" nVehContrib="23" flow="276.00" occupancy="35.20" speed="8.81" length="5.00" nVehEntered="25"/>
    <interval begin="3000.00" end="3300.00" id="TLS0_my_program_InductLoopOn_3si_1" nVehContrib="15" flow="180.00" occupancy="11.94" speed="8.21" length="5.00" nVehEntered="16"/>
    <interval begin="3000.00" end="3300.00" id="TLS0_my_program_InductLoopOn_3si_2" nVehContrib="14" flow="168.00" occupancy="16.55" speed="7.74" length="5.00" nVehEntered="14"/>
    <interval begin="3000.00" end="3300.00" id="TLS0_my_program_InductLoopOn_1si_0" nVehContrib="53" flow="636.00" occupancy="51.40" speed="9.44" length="5.00" nVehEntered="54"/>
    <interval begin="3000.00" end="3300.00" id="TLS0_my_program_InductLoopOn_1si_1" nVehContrib="46" flow="552.00" occupancy="42.34" speed="9.29" length="5.00" nVehEntered="47"/>
    <interval begin="3000.00" end="3300.00" id="TLS0_my_program_InductLoopOn_1si_2" nVehContrib="16" flow="192.00" occupancy="22.64" speed="8.10" length="5.00" nVehEntered="16"/>
    <interval begin="3300.00" end="3600.00" id="TLS0_my_program_InductLoopOn_4si_0" nVehContrib="31" flow="372.00" occupancy="35.67" speed="8.49" length="5.00" nVehEntered="30"/>
    <interval begin="3300.00" end="3600.00" id="TLS0_my_program_InductLoopOn_4si_1" nVehContrib="29" flow="348.00" occupancy="30.45" speed="8.05" length="5.00" nVehEntered="28"/>
    <interval begin="3300.00" end="3600.00" id="TLS0_my_program_InductLoopOn_4si_2" nVehContrib="14" flow="168.00" occupancy="28.49" speed="7.97" length="5.00" nVehEntered="14"/>
    <interval begin="3300.00" end="3600.00" id="TLS0_my_program_InductLoopOn_2si_0" nVehContrib="52" flow="624.00" occupancy="71.78" speed="8.80" length="5.00" nVehEntered="51"/>
    <interval begin="3300.00" end="3600.00" id="TLS0_my_program_InductLoopOn_2si_1" nVehContrib="52" flow="624.00" occupancy="70.85" speed="8.29" length="5.00" nVehEntered="53"/>
    <interval begin="3300.00" end="3600.00" id="TLS0_my_program_InductLoopOn_2si_2" nVehContrib="18" flow="216.00" occupancy="31.59" speed="8.12" length="5.00" nVehEntered="18"/>
    <interval begin="3300.00" end="3600.00" id="TLS0_my_program_InductLoopOn_3si_0" nVehContrib="26" flow="312.00" occupancy="62.64" speed="7.96" length="5.00" nVehEntered="27"/>
    <interval begin="3300.00" end="3600.00" id="TLS0_my_program_InductLoopOn_3si_1" nVehContrib="26" flow="312.00" occupancy="50.81" speed="8.33" length="5.00" nVehEntered="26"/>
    <interval begin="3300.00" end="3600.00" id="TLS0_my_program_InductLoopOn_3si_2" nVehContrib="9" flow="108.00" occupancy="14.51" speed="9.58" length="5.00" nVehEntered="9"/>
    <interval begin="3300.00" end="3600.00" id="TLS0_my_program_InductLoopOn_1si_0" nVehContrib="47" flow="564.00" occupancy="54.43" speed="8.92" length="5.00" nVehEntered="48"/>
    <interval begin="3300.00" end="3600.00" id="TLS0_my_program_InductLoopOn_1si_1" nVehContrib="43" flow="516.00" occupancy="53.67" speed="8.86" length="5.00" nVehEntered="42"/>
    <interval begin="3300.00" end="3600.00" id="TLS0_my_program_InductLoopOn_1si_2" nVehContrib="17" flow="204.00" occupancy="29.23" speed="8.15" length="5.00" nVehEntered="18"/>
    <interval begin="3600.00" end="3776.00" id="TLS0_my_program_InductLoopOn_4si_0" nVehContrib="3" flow="61.36" occupancy="0.72" speed="11.92" length="5.00" nVehEntered="4"/>
    <interval begin="3600.00" end="3776.00" id="TLS0_my_program_InductLoopOn_4si_1" nVehContrib="2" flow="40.91" occupancy="0.93" speed="8.58" length="5.00" nVehEntered="2"/>
    <interval begin="3600.00" end="3776.00" id="TLS0_my_program_InductLoopOn_4si_2" nVehContrib="1" flow="20.45" occupancy="0.35" speed="8.08" length="5.00" nVehEntered="1"/>
    <interval begin="3600.00" end="3776.00" id="TLS0_my_program_InductLoopOn_2si_0" nVehContrib="10" flow="204.55" occupancy="3.56" speed="8.97" length="5.00" nVehEntered="10"/>
    <interval begin="3600.00" end="3776.00" id="TLS0_my_program_InductLoopOn_2si_1" nVehContrib="11" flow="225.00" occupancy="31.51" speed="8.60" length="5.00" nVehEntered="10"/>
    <interval begin="3600.00" end="3776.00" id="TLS0_my_program_InductLoopOn_2si_2" nVehContrib="6" flow="122.73" occupancy="1.82" speed="9.80" length="5.00" nVehEntered="6"/>
    <interval begin="3600.00" end="3776.00" id="TLS0_my_program_InductLoopOn_3si_0" nVehContrib="6" flow="122.73" occupancy="13.02" speed="7.11" length="5.00" nVehEntered="5"/>
    <interval begin="3600.00" end="3776.00" id="TLS0_my_program_InductLoopOn_3si_1" nVehContrib="5" flow="102.27" occupancy="13.05" speed="6.23" length="5.00" nVehEntered="4"/>
    <interval begin="3600.00" end="3776.00" id="TLS0_my_program_InductLoopOn_3si_2" nVehContrib="1" flow="20.45" occupancy="0.22" speed="13.18" length="5.00" nVehEntered="1"/>
    <interval begin="3600.00" end="3776.00" id="TLS0_my_program_InductLoopOn_1si_0" nVehContrib="5" flow="102.27" occupancy="26.13" speed="5.67" length="5.00" nVehEntered="5"/>
    <interval begin="3600.00" end="3776.00" id="TLS0_my_program_InductLoopOn_1si_1" nVehContrib="4" flow="81.82" occupancy="28.46" speed="4.78" length="5.00" nVehEntered="4"/>
    <interval begin="3600.00" end="3776.00" id="TLS0_my_program_InductLoopOn_1si_2" nVehContrib="7" flow="143.18" occupancy="2.04" speed="10.21" length="5.00" nVehEntered="6"/>
</detector>
